#INFO: **** input file is /home/nkousuke/lustre/toBeSync/turboRVB/05turbo-genius-development/turbogenius_paper/04data/sanity_checks/02pyscf_prep_LDA_via_trexio/00open_boundary/results/PH3/pyscf-LDA-workflow/run.py ****

from pyscf_wrapper import Pyscf_wrapper

# input variables
pyscf_chkfile="pyscf.chk"
structure_file="PH3.xyz"

# input variables
omp_num_threads=128
charge=0
spin=0
basis="ccecp-ccpvqz"
ecp="ccecp"
scf_method="DFT"
dft_xc="LDA_X,LDA_C_PZ"
solver_newton=False
MP2_flag=False
CCSD_flag=False
pyscf_output="out.pyscf"
twist_average=False
exp_to_discard=0.1
kpt=[0.0, 0.0, 0.0]
kpt_grid=[1, 1, 1]
smearing_method="fermi"
smearing_sigma=0.0

pyscf_calc=Pyscf_wrapper(
                        structure_file=structure_file,
                        chkfile=pyscf_chkfile,
                        )

pyscf_calc.run_pyscf(
                  omp_num_threads=omp_num_threads,
                  charge=charge,
                  spin=spin,
                  basis=basis,
                  ecp=ecp,
                  scf_method=scf_method,
                  dft_xc=dft_xc,
                  solver_newton=solver_newton,
                  MP2_flag=MP2_flag,
                  CCSD_flag=CCSD_flag,
                  pyscf_output=pyscf_output,
                  twist_average=twist_average,
                  exp_to_discard=exp_to_discard,
                  kpt=kpt,
                  kpt_grid=kpt_grid,
                  smearing_method=smearing_method,
                  smearing_sigma=smearing_sigma
                  )
                #INFO: ******************** input file end ********************


System: uname_result(system='Linux', node='spcc-205', release='5.4.0-66-generic', version='#74-Ubuntu SMP Wed Jan 27 22:54:38 UTC 2021', machine='x86_64', processor='x86_64')  Threads 128
Python 3.7.3 (default, Mar 27 2019, 22:11:17) 
[GCC 7.3.0]
numpy 1.20.1  scipy 1.7.3
Date: Thu Dec 22 06:22:49 2022
PySCF version 2.0.1
PySCF path  /home/nkousuke/application/anaconda3/lib/python3.7/site-packages/pyscf

[CONFIG] conf_file /home/nkousuke/.pyscf_conf.py
[INPUT] verbose = 5
[INPUT] max_memory = 507410.546875 
[INPUT] num. atoms = 4
[INPUT] num. electrons = 8
[INPUT] charge = 0
[INPUT] spin (= nelec alpha-beta = 2S) = 0
[INPUT] symmetry False subgroup None
[INPUT] Mole.unit = A
[INPUT]  1 P      0.000000000000   0.000000000000   0.127520000000 AA    0.000000000000   0.000000000000   0.240977875405 Bohr
[INPUT]  2 H      0.000000000000   1.186250000000  -0.637610000000 AA    0.000000000000   2.241687615265  -1.204908274284 Bohr
[INPUT]  3 H      1.027320000000  -0.593130000000  -0.637610000000 AA    1.941353442288  -1.120853256263  -1.204908274284 Bohr
[INPUT]  4 H     -1.027320000000  -0.593130000000  -0.637610000000 AA   -1.941353442288  -1.120853256263  -1.204908274284 Bohr
[INPUT] ---------------- BASIS SET ---------------- 
[INPUT] l, kappa, [nprim/nctr], expnt,             c_1 c_2 ...
[INPUT] H
[INPUT] 0    0    [8    /1   ]  23.843185         0.0041149
                                10.212443         0.0104644
                                4.374164          0.0280111
                                1.873529          0.0758862
                                0.802465          0.1821062
                                0.343709          0.3485214
                                0.147217          0.3782313
                                0.063055          0.1164241
[INPUT] 0    0    [1    /1   ]  0.081856             1
[INPUT] 0    0    [1    /1   ]  0.233254             1
[INPUT] 0    0    [1    /1   ]  0.664673             1
[INPUT] 1    0    [1    /1   ]  0.284469             1
[INPUT] 1    0    [1    /1   ]  0.847159             1
[INPUT] 1    0    [1    /1   ]  2.522868             1
[INPUT] 2    0    [1    /1   ]  0.665279             1
[INPUT] 2    0    [1    /1   ]  2.048739             1
[INPUT] 3    0    [1    /1   ]  1.42146              1
[INPUT] P
[INPUT] 0    0    [10   /1   ]  5.054268          0.001781
                                3.094719          0.077653
                                1.894891          -0.312344
                                1.160239          -0.045804
                                0.710412          -0.029427
                                0.434984          0.31856
                                0.26634           0.309169
                                0.16308           0.376899
                                0.099853          0.152113
                                0.06114           0.054943
[INPUT] 0    0    [1    /1   ]  0.636005             1
[INPUT] 0    0    [1    /1   ]  0.25859              1
[INPUT] 0    0    [1    /1   ]  0.105139             1
[INPUT] 1    0    [10   /1   ]  5.861284          -0.00316
                                3.406365          0.007462
                                1.979655          -0.060893
                                1.150503          0.015297
                                0.668631          0.123431
                                0.388584          0.257276
                                0.225831          0.305131
                                0.131245          0.276016
                                0.076275          0.134133
                                0.044328          0.040073
[INPUT] 1    0    [1    /1   ]  1.653678             1
[INPUT] 1    0    [1    /1   ]  0.679946             1
[INPUT] 1    0    [1    /1   ]  0.279575             1
[INPUT] 2    0    [1    /1   ]  1.375779             1
[INPUT] 2    0    [1    /1   ]  0.502887             1
[INPUT] 2    0    [1    /1   ]  0.18382              1
[INPUT] 3    0    [1    /1   ]  0.72673              1
[INPUT] 3    0    [1    /1   ]  0.284724             1
[INPUT] 4    0    [1    /1   ]  0.59499              1

nuclear repulsion = 6.39582040108012
number of shells = 44
number of NR pGTOs = 201
number of NR cGTOs = 144
basis = ccecp-ccpvqz
ecp = ccecp
CPU time:         4.61


******** <class 'pyscf.df.df_jk.density_fit.<locals>.DFHF'> ********
method = DFHF-RKS-RHF
initial guess = minao
damping factor = 0
level_shift factor = 0
DIIS = <class 'pyscf.scf.diis.CDIIS'>
diis_start_cycle = 1
diis_space = 8
SCF conv_tol = 1e-09
SCF conv_tol_grad = None
SCF max_cycles = 200
direct_scf = True
direct_scf_tol = 1e-13
chkfile to save SCF result = pyscf.chk
max_memory 507410 MB (current use 106 MB)
XC library pyscf.dft.libxc version 5.1.7
    S. Lehtola, C. Steigemann, M. J. Oliveira, and M. A. Marques, SoftwareX 7, 1 (2018)
XC functionals = LDA_X,LDA_C_PZ
    P. A. M. Dirac, Math. Proc. Cambridge Philos. Soc. 26, 376 (1930)
    F. Bloch, Z. Phys. 57, 545 (1929)
    J. P. Perdew and A. Zunger, Phys. Rev. B 23, 5048 (1981)
radial grids: 
    Treutler-Ahlrichs [JCP 102, 346 (1995); DOI:10.1063/1.469408] (M4) radial grids
    
becke partition: Becke, JCP 88, 2547 (1988); DOI:10.1063/1.454033
pruning grids: <function nwchem_prune at 0x14a3667f77b8>
grids dens level: 3
symmetrized grids: False
atomic radii adjust function: <function treutler_atomic_radii_adjust at 0x14a3667f76a8>
small_rho_cutoff = 1e-07
Set gradient conv threshold to 3.16228e-05
atom P rad-grids = 80, ang-grids = [ 50  50  50  50  50  50  50  50  50  50  50  50  50  50  50  50  50  50
  50  50  50  50  50  50  86  86  86  86  86  86  86  86  86  86  86  86
  86 350 350 350 350 350 350 350 350 350 434 434 434 434 434 434 434 434
 434 434 434 434 434 434 434 434 434 434 350 350 350 350 350 350 350 350
 350 350 350 350 350 350 350 350]
atom H rad-grids = 50, ang-grids = [ 50  50  50  50  50  50  50  50  50  50  50  50  50  50  86  86  86  86
 266 266 266 266 302 302 302 302 302 302 302 302 302 302 302 302 302 266
 266 266 266 266 266 266 266 266 266 266 266 266 266 266]
tot grids = 48952
Drop grids 3775
    CPU time for setting up grids     46.72 sec, wall time      0.47 sec
nelec by numeric integration = 7.999862320288997
    CPU time for vxc     45.01 sec, wall time      0.35 sec
Even tempered Gaussians are generated as DF auxbasis for  H P
  ETB auxbasis for H  [[0, [32.28416, 1]], [0, [16.14208, 1]], [0, [8.07104, 1]], [0, [4.03552, 1]], [0, [2.01776, 1]], [0, [1.00888, 1]], [0, [0.50444, 1]], [0, [0.25222, 1]], [0, [0.12611, 1]], [1, [8.571507550502421, 1]], [1, [4.2857537752512105, 1]], [1, [2.1428768876256052, 1]], [1, [1.0714384438128026, 1]], [1, [0.5357192219064013, 1]], [1, [0.26785961095320066, 1]], [2, [4.551504, 1]], [2, [2.275752, 1]], [2, [1.137876, 1]], [2, [0.568938, 1]]]
  ETB auxbasis for P  [[0, [7.82592, 1]], [0, [3.91296, 1]], [0, [1.95648, 1]], [0, [0.97824, 1]], [0, [0.48912, 1]], [0, [0.24456, 1]], [0, [0.12228, 1]], [1, [6.663643512769872, 1]], [1, [3.331821756384936, 1]], [1, [1.665910878192468, 1]], [1, [0.832955439096234, 1]], [1, [0.416477719548117, 1]], [1, [0.2082388597740585, 1]], [1, [0.10411942988702926, 1]], [2, [11.347968, 1]], [2, [5.673984, 1]], [2, [2.836992, 1]], [2, [1.418496, 1]], [2, [0.709248, 1]], [2, [0.354624, 1]], [2, [0.177312, 1]], [2, [0.088656, 1]], [3, [5.777173672667285, 1]], [3, [2.8885868363336424, 1]], [3, [1.4442934181668212, 1]], [3, [0.7221467090834106, 1]], [3, [0.3610733545417053, 1]], [3, [0.18053667727085265, 1]], [4, [2.94112, 1]], [4, [1.47056, 1]], [4, [0.73528, 1]], [4, [0.36764, 1]]]
num shells = 89, num cGTOs = 287
    CPU time for df-vj     32.20 sec, wall time      0.26 sec
E1 = -23.88517780326414  Ecoul = 12.06653068703026  Exc = -2.5443180585292575
init E= -7.96714477368302
cond(S) = 22403.37737458342
    CPU time for initialize scf    259.56 sec, wall time      2.28 sec
  HOMO = -0.284458988842919  LUMO = -0.0302523984935125
  mo_energy =
[-0.63927997 -0.38312089 -0.38312003 -0.28445899 -0.0302524  -0.03025161
 -0.0166459   0.09690313  0.09690385  0.12745924  0.13136113  0.13136132
  0.18680027  0.25868044  0.26899624  0.26899628  0.33794514  0.41593673
  0.41593728  0.51651682  0.53710289  0.53710364  0.63117395  0.63117649
  0.70916832  0.77900943  0.79865338  0.79865434  0.84134872  0.86372007
  0.86372034  0.89215945  0.93600119  0.93600167  0.95506788  0.97962009
  1.08767522  1.0876792   1.09629376  1.09629398  1.20165893  1.31464982
  1.31465123  1.59656675  1.84337438  1.84337574  1.86843219  1.86843686
  1.87631136  1.96437116  1.96437136  2.07170207  2.13200978  2.13432511
  2.13432778  2.18477179  2.18477812  2.18824358  2.23139975  2.35093407
  2.37120101  2.37120323  2.4784769   2.52168941  2.52169008  2.52178337
  2.67983568  2.6798368   2.68803085  2.72057528  2.76496473  2.76496565
  2.79150985  2.79151112  2.82935708  2.84665406  2.84665422  2.95915481
  3.01525788  3.01526079  3.30315514  3.38097151  3.38097278  3.67792235
  3.67792555  3.70157799  3.78005583  3.84710095  3.84710366  3.97616976
  4.10927235  4.10927507  5.76665404  5.76665408  5.79194329  5.81202866
  5.81203275  5.81389421  5.86522201  6.14756684  6.14756717  6.1673792
  6.17568778  6.17569695  6.30879886  6.30880108  6.40646448  6.46221042
  6.46221241  6.49136595  6.81172354  6.82533616  6.82534994  6.84191252
  6.90329234  6.9032964   7.31677888  7.42918972  7.42919633  7.79480088
  7.79480736  7.87991426  7.87994194  7.89788961  7.98397542  8.09742236
  8.09743553  8.16884811  8.22790451  8.22791844  8.29856613  8.41719613
  8.44655984  8.44656358  8.57207469  8.71128949  8.71130709  8.78332752
  8.78562614  8.78565088  9.37500669 10.01940011 10.01940017 12.85463499]
nelec by numeric integration = 8.00000028734544
    CPU time for vxc     34.78 sec, wall time      0.28 sec
    CPU time for df-vj      2.49 sec, wall time      0.02 sec
E1 = -24.618717726697213  Ecoul = 12.630004138703997  Exc = -2.6647411418019002
cycle= 1 E= -8.257634328715  delta_E= -0.29  |g|= 0.131  |ddm|=  2.6
    CPU time for cycle= 1     47.02 sec, wall time      0.40 sec
  HOMO = -0.220108471435695  LUMO = 0.00938084236419977
  mo_energy =
[-5.60751028e-01 -3.21970041e-01 -3.21969000e-01 -2.20108471e-01
  9.38084236e-03  1.19253316e-02  1.19261042e-02  1.18435543e-01
  1.18436216e-01  1.76623218e-01  1.78514441e-01  1.78514601e-01
  2.21645409e-01  2.97338854e-01  2.97338915e-01  2.98727741e-01
  3.66356352e-01  4.52790432e-01  4.52790950e-01  5.42199153e-01
  5.67469399e-01  5.67470356e-01  6.64501957e-01  6.64504340e-01
  7.44221268e-01  8.25941416e-01  8.39016979e-01  8.39018148e-01
  8.85559117e-01  9.30075755e-01  9.30075950e-01  9.42000543e-01
  9.74699022e-01  9.74699428e-01  1.00527994e+00  1.01488685e+00
  1.12899167e+00  1.12899579e+00  1.14588231e+00  1.14588249e+00
  1.24217937e+00  1.36273108e+00  1.36273262e+00  1.66506610e+00
  1.89091183e+00  1.89091353e+00  1.91115919e+00  1.91116354e+00
  1.93095391e+00  2.02593823e+00  2.02593841e+00  2.12429817e+00
  2.18205120e+00  2.18205392e+00  2.19670919e+00  2.22419403e+00
  2.22777501e+00  2.22778138e+00  2.27054152e+00  2.41080364e+00
  2.41794659e+00  2.41794880e+00  2.52073879e+00  2.56886201e+00
  2.56886305e+00  2.60506581e+00  2.73437491e+00  2.73437605e+00
  2.73453820e+00  2.77688253e+00  2.82075182e+00  2.82075261e+00
  2.85815760e+00  2.85815985e+00  2.88421440e+00  2.91724107e+00
  2.91724161e+00  3.02916090e+00  3.08223902e+00  3.08224173e+00
  3.36224326e+00  3.44313278e+00  3.44313456e+00  3.74088807e+00
  3.74089125e+00  3.77121568e+00  3.84287693e+00  3.91964258e+00
  3.91964549e+00  4.04830235e+00  4.17985143e+00  4.17985431e+00
  5.81209605e+00  5.81209651e+00  5.83500254e+00  5.85554817e+00
  5.85555254e+00  5.85872550e+00  5.91855994e+00  6.21386080e+00
  6.21386116e+00  6.22812003e+00  6.22812820e+00  6.23995492e+00
  6.36899071e+00  6.36899294e+00  6.47027019e+00  6.52224414e+00
  6.52224635e+00  6.54835701e+00  6.87276113e+00  6.88909173e+00
  6.88910586e+00  6.90559803e+00  6.96933460e+00  6.96933865e+00
  7.40289273e+00  7.50465596e+00  7.50466291e+00  7.84206599e+00
  7.84207328e+00  7.93077431e+00  7.93080384e+00  7.94670207e+00
  8.02834264e+00  8.14203752e+00  8.14205098e+00  8.21516770e+00
  8.27798686e+00  8.27799976e+00  8.34991824e+00  8.46425035e+00
  8.49794937e+00  8.49795343e+00  8.62815144e+00  8.76897409e+00
  8.76899435e+00  8.83857175e+00  8.83929338e+00  8.83932030e+00
  9.44627597e+00  1.00951156e+01  1.00951158e+01  1.29765659e+01]
nelec by numeric integration = 8.00000038431348
    CPU time for vxc     32.67 sec, wall time      0.26 sec
    CPU time for df-vj      3.53 sec, wall time      0.03 sec
E1 = -24.2541622356456  Ecoul = 12.18260716585084  Exc = -2.582786119535352
cycle= 2 E= -8.25852078825  delta_E= -0.000886  |g|= 0.124  |ddm|= 0.767
    CPU time for cycle= 2     98.83 sec, wall time      0.78 sec
  HOMO = -0.247137847066463  LUMO = -0.00586437197499732
  mo_energy =
[-5.93551740e-01 -3.45391762e-01 -3.45390855e-01 -2.47137847e-01
 -5.86437197e-03 -5.86359524e-03 -1.26601308e-03  1.09766589e-01
  1.09767218e-01  1.57970986e-01  1.58638137e-01  1.58638305e-01
  2.06182759e-01  2.82996175e-01  2.84501535e-01  2.84501569e-01
  3.54377843e-01  4.37435017e-01  4.37435560e-01  5.32112591e-01
  5.55863691e-01  5.55864533e-01  6.51326002e-01  6.51328399e-01
  7.30088760e-01  8.07142128e-01  8.20794138e-01  8.20795224e-01
  8.68442285e-01  8.99799203e-01  8.99799420e-01  9.20385635e-01
  9.58729715e-01  9.58730105e-01  9.84095590e-01  9.98739864e-01
  1.11216150e+00  1.11216563e+00  1.12351604e+00  1.12351627e+00
  1.22545025e+00  1.34342995e+00  1.34343140e+00  1.63303203e+00
  1.87298716e+00  1.87298862e+00  1.89500458e+00  1.89500899e+00
  1.91050098e+00  1.99816190e+00  1.99816201e+00  2.10387914e+00
  2.16320156e+00  2.16320423e+00  2.16962339e+00  2.21063801e+00
  2.21232168e+00  2.21232807e+00  2.25732251e+00  2.38632000e+00
  2.39914184e+00  2.39914412e+00  2.50316253e+00  2.54996801e+00
  2.54996885e+00  2.56725214e+00  2.71162128e+00  2.71162234e+00
  2.71511866e+00  2.75223997e+00  2.79640659e+00  2.79640743e+00
  2.82828209e+00  2.82828381e+00  2.85856545e+00  2.88455886e+00
  2.88455918e+00  2.99924644e+00  3.05232069e+00  3.05232347e+00
  3.33736011e+00  3.41662730e+00  3.41662889e+00  3.71302857e+00
  3.71303182e+00  3.74080882e+00  3.81508368e+00  3.88753966e+00
  3.88754252e+00  4.01791842e+00  4.15028958e+00  4.15029242e+00
  5.79704489e+00  5.79704528e+00  5.82105835e+00  5.84138814e+00
  5.84139229e+00  5.84417646e+00  5.89993772e+00  6.18993538e+00
  6.18993593e+00  6.20846104e+00  6.20847031e+00  6.21193275e+00
  6.34732619e+00  6.34732840e+00  6.44779953e+00  6.50035367e+00
  6.50035588e+00  6.52872263e+00  6.85107547e+00  6.86718023e+00
  6.86719449e+00  6.88363238e+00  6.94518471e+00  6.94518871e+00
  7.36428299e+00  7.47353213e+00  7.47353906e+00  7.82902095e+00
  7.82902794e+00  7.91599106e+00  7.91602053e+00  7.93327800e+00
  8.01671734e+00  8.13020691e+00  8.13022027e+00  8.20262550e+00
  8.26369981e+00  8.26371331e+00  8.33508415e+00  8.45048407e+00
  8.48285464e+00  8.48285851e+00  8.61128559e+00  8.75107609e+00
  8.75109566e+00  8.82107531e+00  8.82282723e+00  8.82285383e+00
  9.42233902e+00  1.00681142e+01  1.00681142e+01  1.29204299e+01]
nelec by numeric integration = 8.000000347801823
    CPU time for vxc     26.15 sec, wall time      0.20 sec
    CPU time for df-vj      1.93 sec, wall time      0.02 sec
E1 = -24.43258802175529  Ecoul = 12.38910507183501  Exc = -2.6166213988336144
cycle= 3 E= -8.26428394767378  delta_E= -0.00576  |g|= 0.0118  |ddm|= 0.367
    CPU time for cycle= 3     49.18 sec, wall time      0.38 sec
  HOMO = -0.246724172230843  LUMO = -0.00598739760229983
  mo_energy =
[-5.94621867e-01 -3.46834949e-01 -3.46834021e-01 -2.46724172e-01
 -5.98739760e-03 -5.98661548e-03 -2.14022659e-03  1.09038572e-01
  1.09039210e-01  1.57003038e-01  1.58362578e-01  1.58362744e-01
  2.06331355e-01  2.81882759e-01  2.84485091e-01  2.84485125e-01
  3.54223159e-01  4.37024246e-01  4.37024781e-01  5.30916124e-01
  5.54945785e-01  5.54946639e-01  6.50310492e-01  6.50312895e-01
  7.29093800e-01  8.07111812e-01  8.20834555e-01  8.20835653e-01
  8.66995860e-01  8.99999626e-01  8.99999848e-01  9.20064200e-01
  9.58340687e-01  9.58341079e-01  9.83353090e-01  9.98987936e-01
  1.11153737e+00  1.11154156e+00  1.12301589e+00  1.12301604e+00
  1.22500305e+00  1.34258638e+00  1.34258783e+00  1.63432192e+00
  1.87123659e+00  1.87123807e+00  1.89350856e+00  1.89351301e+00
  1.90854652e+00  1.99802308e+00  1.99802321e+00  2.10310859e+00
  2.16221369e+00  2.16221638e+00  2.16800281e+00  2.20926942e+00
  2.21085799e+00  2.21086440e+00  2.25548418e+00  2.38499388e+00
  2.39813451e+00  2.39813679e+00  2.50235098e+00  2.54885893e+00
  2.54885979e+00  2.56747790e+00  2.71098785e+00  2.71098891e+00
  2.71434814e+00  2.75170552e+00  2.79630096e+00  2.79630178e+00
  2.82777477e+00  2.82777653e+00  2.85870109e+00  2.88462420e+00
  2.88462453e+00  2.99905574e+00  3.05240849e+00  3.05241129e+00
  3.33649456e+00  3.41562166e+00  3.41562327e+00  3.71270419e+00
  3.71270743e+00  3.74031815e+00  3.81477090e+00  3.88689861e+00
  3.88690145e+00  4.01712500e+00  4.14932607e+00  4.14932890e+00
  5.79458005e+00  5.79458043e+00  5.81861140e+00  5.83901521e+00
  5.83901930e+00  5.84187091e+00  5.89751151e+00  6.18791231e+00
  6.18791288e+00  6.20643188e+00  6.20644111e+00  6.21009763e+00
  6.34552737e+00  6.34552960e+00  6.44532117e+00  6.49824049e+00
  6.49824267e+00  6.52613246e+00  6.84885902e+00  6.86457190e+00
  6.86458618e+00  6.88122741e+00  6.94291864e+00  6.94292263e+00
  7.36401780e+00  7.47233117e+00  7.47233810e+00  7.82603772e+00
  7.82604465e+00  7.91310838e+00  7.91313771e+00  7.93010519e+00
  8.01356055e+00  8.12704765e+00  8.12706106e+00  8.19977707e+00
  8.26086355e+00  8.26087703e+00  8.33236840e+00  8.44753024e+00
  8.47988806e+00  8.47989195e+00  8.60836877e+00  8.74826397e+00
  8.74828351e+00  8.81828994e+00  8.81980596e+00  8.81983251e+00
  9.41971832e+00  1.00657424e+01  1.00657424e+01  1.29210799e+01]
nelec by numeric integration = 8.000000342902876
    CPU time for vxc     36.70 sec, wall time      0.29 sec
    CPU time for df-vj      9.54 sec, wall time      0.08 sec
E1 = -24.431275243524468  Ecoul = 12.38866096526387  Exc = -2.617547463415302
cycle= 4 E= -8.26434134059578  delta_E= -5.74e-05  |g|= 0.00275  |ddm|= 0.0311
    CPU time for cycle= 4     81.05 sec, wall time      0.64 sec
  HOMO = -0.247188846963891  LUMO = -0.00617841502281555
  mo_energy =
[-5.94597830e-01 -3.46812231e-01 -3.46811308e-01 -2.47188847e-01
 -6.17841502e-03 -6.17763271e-03 -2.13270362e-03  1.09024682e-01
  1.09025319e-01  1.56941904e-01  1.58263253e-01  1.58263420e-01
  2.06016509e-01  2.81844846e-01  2.84334276e-01  2.84334309e-01
  3.54079737e-01  4.36895806e-01  4.36896342e-01  5.30980757e-01
  5.54910294e-01  5.54911148e-01  6.50311906e-01  6.50314307e-01
  7.29136743e-01  8.06862963e-01  8.20641038e-01  8.20642134e-01
  8.67044146e-01  8.99806441e-01  8.99806663e-01  9.19911129e-01
  9.58188242e-01  9.58188634e-01  9.83232963e-01  9.98803880e-01
  1.11144627e+00  1.11145044e+00  1.12294058e+00  1.12294075e+00
  1.22488062e+00  1.34247581e+00  1.34247725e+00  1.63374004e+00
  1.87138541e+00  1.87138688e+00  1.89358834e+00  1.89359278e+00
  1.90870289e+00  1.99789548e+00  1.99789562e+00  2.10296192e+00
  2.16214658e+00  2.16214927e+00  2.16816809e+00  2.20934165e+00
  2.21085109e+00  2.21085749e+00  2.25556888e+00  2.38503637e+00
  2.39805520e+00  2.39805749e+00  2.50229857e+00  2.54882277e+00
  2.54882363e+00  2.56728707e+00  2.71088923e+00  2.71089030e+00
  2.71425621e+00  2.75158412e+00  2.79603599e+00  2.79603682e+00
  2.82768113e+00  2.82768289e+00  2.85852358e+00  2.88451012e+00
  2.88451045e+00  2.99881104e+00  3.05216285e+00  3.05216564e+00
  3.33640256e+00  3.41557445e+00  3.41557606e+00  3.71257836e+00
  3.71258161e+00  3.74018437e+00  3.81465231e+00  3.88684384e+00
  3.88684668e+00  4.01702056e+00  4.14923387e+00  4.14923669e+00
  5.79477274e+00  5.79477311e+00  5.81880688e+00  5.83918878e+00
  5.83919284e+00  5.84200973e+00  5.89768007e+00  6.18797826e+00
  6.18797882e+00  6.20652821e+00  6.20653743e+00  6.21009903e+00
  6.34549791e+00  6.34550016e+00  6.44544751e+00  6.49832746e+00
  6.49832965e+00  6.52630785e+00  6.84892923e+00  6.86468566e+00
  6.86469992e+00  6.88130943e+00  6.94301061e+00  6.94301464e+00
  7.36380697e+00  7.47226834e+00  7.47227528e+00  7.82615591e+00
  7.82616284e+00  7.91320198e+00  7.91323132e+00  7.93027017e+00
  8.01371508e+00  8.12717038e+00  8.12718377e+00  8.19981384e+00
  8.26090808e+00  8.26092159e+00  8.33238496e+00  8.44764601e+00
  8.47999298e+00  8.47999686e+00  8.60845414e+00  8.74833453e+00
  8.74835405e+00  8.81835034e+00  8.81992341e+00  8.81994993e+00
  9.41971103e+00  1.00657436e+01  1.00657436e+01  1.29209736e+01]
nelec by numeric integration = 8.000000343454328
    CPU time for vxc     41.78 sec, wall time      0.33 sec
    CPU time for df-vj      7.59 sec, wall time      0.06 sec
E1 = -24.431088233351872  Ecoul = 12.388497128482602  Exc = -2.6175742722583952
cycle= 5 E= -8.26434497604755  delta_E= -3.64e-06  |g|= 0.000125  |ddm|= 0.00623
    CPU time for cycle= 5    100.10 sec, wall time      0.79 sec
  HOMO = -0.247140453967657  LUMO = -0.00614939097276483
  mo_energy =
[-5.94560183e-01 -3.46776349e-01 -3.46775425e-01 -2.47140454e-01
 -6.14939097e-03 -6.14860864e-03 -2.12667996e-03  1.09031679e-01
  1.09032317e-01  1.56969790e-01  1.58290058e-01  1.58290226e-01
  2.06033022e-01  2.81867396e-01  2.84351895e-01  2.84351929e-01
  3.54098386e-01  4.36916126e-01  4.36916661e-01  5.30995126e-01
  5.54926604e-01  5.54927460e-01  6.50326964e-01  6.50329365e-01
  7.29150928e-01  8.06892511e-01  8.20664128e-01  8.20665224e-01
  8.67056602e-01  8.99841154e-01  8.99841374e-01  9.19939069e-01
  9.58213560e-01  9.58213952e-01  9.83264647e-01  9.98823906e-01
  1.11147071e+00  1.11147489e+00  1.12296240e+00  1.12296256e+00
  1.22490659e+00  1.34250560e+00  1.34250705e+00  1.63379525e+00
  1.87141167e+00  1.87141314e+00  1.89361463e+00  1.89361907e+00
  1.90873334e+00  1.99793026e+00  1.99793039e+00  2.10299805e+00
  2.16217990e+00  2.16218259e+00  2.16819081e+00  2.20936527e+00
  2.21088454e+00  2.21089095e+00  2.25559892e+00  2.38506372e+00
  2.39809079e+00  2.39809307e+00  2.50232844e+00  2.54885200e+00
  2.54885286e+00  2.56733013e+00  2.71092284e+00  2.71092390e+00
  2.71429006e+00  2.75161637e+00  2.79607598e+00  2.79607680e+00
  2.82771701e+00  2.82771877e+00  2.85856209e+00  2.88454757e+00
  2.88454790e+00  2.99885384e+00  3.05220412e+00  3.05220691e+00
  3.33643862e+00  3.41560932e+00  3.41561093e+00  3.71261250e+00
  3.71261574e+00  3.74022417e+00  3.81468667e+00  3.88688434e+00
  3.88688718e+00  4.01706414e+00  4.14928157e+00  4.14928438e+00
  5.79480546e+00  5.79480582e+00  5.81884031e+00  5.83922333e+00
  5.83922740e+00  5.84204585e+00  5.89771247e+00  6.18801941e+00
  6.18801996e+00  6.20656433e+00  6.20657355e+00  6.21014490e+00
  6.34554458e+00  6.34554684e+00  6.44548564e+00  6.49836573e+00
  6.49836793e+00  6.52634417e+00  6.84896862e+00  6.86472332e+00
  6.86473758e+00  6.88135027e+00  6.94305194e+00  6.94305597e+00
  7.36386844e+00  7.47232515e+00  7.47233209e+00  7.82620191e+00
  7.82620884e+00  7.91325000e+00  7.91327935e+00  7.93031795e+00
  8.01376116e+00  8.12721854e+00  8.12723194e+00  8.19986120e+00
  8.26095693e+00  8.26097045e+00  8.33243471e+00  8.44768854e+00
  8.48003588e+00  8.48003976e+00  8.60849848e+00  8.74837952e+00
  8.74839903e+00  8.81839354e+00  8.81996594e+00  8.81999246e+00
  9.41976664e+00  1.00657965e+01  1.00657965e+01  1.29210428e+01]
nelec by numeric integration = 8.000000343519268
    CPU time for vxc     36.10 sec, wall time      0.28 sec
    CPU time for df-vj      8.15 sec, wall time      0.06 sec
E1 = -24.43093257565404  Ecoul = 12.38828926613262  Exc = -2.617522074428054
cycle= 6 E= -8.26434498286936  delta_E= -6.82e-09  |g|= 2.66e-05  |ddm|= 0.000798
    CPU time for cycle= 6     58.32 sec, wall time      0.46 sec
  HOMO = -0.247149910335158  LUMO = -0.00615746420374972
  mo_energy =
[-5.94572668e-01 -3.46787807e-01 -3.46786883e-01 -2.47149910e-01
 -6.15746420e-03 -6.15668203e-03 -2.13281081e-03  1.09026137e-01
  1.09026774e-01  1.56961283e-01  1.58281915e-01  1.58282083e-01
  2.06027905e-01  2.81859478e-01  2.84346150e-01  2.84346184e-01
  3.54092824e-01  4.36909000e-01  4.36909535e-01  5.30987291e-01
  5.54919523e-01  5.54920378e-01  6.50319489e-01  6.50321890e-01
  7.29143340e-01  8.06885673e-01  8.20656558e-01  8.20657654e-01
  8.67047728e-01  8.99830943e-01  8.99831164e-01  9.19930444e-01
  9.58206164e-01  9.58206556e-01  9.83255774e-01  9.98817178e-01
  1.11146289e+00  1.11146707e+00  1.12295309e+00  1.12295325e+00
  1.22489889e+00  1.34249670e+00  1.34249815e+00  1.63378508e+00
  1.87140157e+00  1.87140304e+00  1.89360511e+00  1.89360956e+00
  1.90872226e+00  1.99791987e+00  1.99792000e+00  2.10298822e+00
  2.16217020e+00  2.16217290e+00  2.16817975e+00  2.20935645e+00
  2.21087482e+00  2.21088123e+00  2.25558939e+00  2.38505329e+00
  2.39808048e+00  2.39808276e+00  2.50231865e+00  2.54884223e+00
  2.54884309e+00  2.56731801e+00  2.71091270e+00  2.71091377e+00
  2.71428013e+00  2.75160612e+00  2.79606588e+00  2.79606670e+00
  2.82770568e+00  2.82770744e+00  2.85855149e+00  2.88453624e+00
  2.88453657e+00  2.99884346e+00  3.05219344e+00  3.05219624e+00
  3.33642755e+00  3.41559792e+00  3.41559953e+00  3.71260184e+00
  3.71260508e+00  3.74021268e+00  3.81467586e+00  3.88687214e+00
  3.88687498e+00  4.01705182e+00  4.14926884e+00  4.14927164e+00
  5.79479462e+00  5.79479499e+00  5.81882961e+00  5.83921259e+00
  5.83921666e+00  5.84203491e+00  5.89770102e+00  6.18800676e+00
  6.18800731e+00  6.20655289e+00  6.20656211e+00  6.21013179e+00
  6.34553241e+00  6.34553467e+00  6.44547319e+00  6.49835359e+00
  6.49835579e+00  6.52633229e+00  6.84895626e+00  6.86471097e+00
  6.86472523e+00  6.88133767e+00  6.94303920e+00  6.94304323e+00
  7.36385399e+00  7.47231129e+00  7.47231823e+00  7.82619007e+00
  7.82619701e+00  7.91323781e+00  7.91326715e+00  7.93030561e+00
  8.01374921e+00  8.12720643e+00  8.12721982e+00  8.19984957e+00
  8.26094479e+00  8.26095832e+00  8.33242254e+00  8.44767666e+00
  8.48002379e+00  8.48002767e+00  8.60848618e+00  8.74836711e+00
  8.74838663e+00  8.81838118e+00  8.81995357e+00  8.81998009e+00
  9.41975263e+00  1.00657825e+01  1.00657825e+01  1.29210261e+01]
nelec by numeric integration = 8.000000343504599
    CPU time for vxc     36.57 sec, wall time      0.29 sec
    CPU time for df-vj      8.13 sec, wall time      0.06 sec
E1 = -24.430973238067736  Ecoul = 12.38834095320158  Exc = -2.6175330993773307
cycle= 7 E= -8.26434498316337  delta_E= -2.94e-10  |g|= 1.71e-06  |ddm|= 0.000135
    CPU time for cycle= 7     98.90 sec, wall time      0.77 sec
  HOMO = -0.247150394816963  LUMO = -0.00615754327660415
  mo_energy =
[-5.94572509e-01 -3.46787510e-01 -3.46786586e-01 -2.47150395e-01
 -6.15754328e-03 -6.15676102e-03 -2.13269642e-03  1.09026256e-01
  1.09026894e-01  1.56961257e-01  1.58281887e-01  1.58282055e-01
  2.06027548e-01  2.81859612e-01  2.84346093e-01  2.84346127e-01
  3.54092769e-01  4.36908969e-01  4.36909504e-01  5.30987566e-01
  5.54919581e-01  5.54920436e-01  6.50319663e-01  6.50322063e-01
  7.29143488e-01  8.06885398e-01  8.20656464e-01  8.20657560e-01
  8.67047910e-01  8.99830825e-01  8.99831046e-01  9.19930349e-01
  9.58206101e-01  9.58206493e-01  9.83255754e-01  9.98817059e-01
  1.11146285e+00  1.11146702e+00  1.12295312e+00  1.12295329e+00
  1.22489885e+00  1.34249675e+00  1.34249820e+00  1.63378452e+00
  1.87140186e+00  1.87140333e+00  1.89360541e+00  1.89360985e+00
  1.90872263e+00  1.99791984e+00  1.99791997e+00  2.10298830e+00
  2.16217039e+00  2.16217309e+00  2.16818004e+00  2.20935673e+00
  2.21087509e+00  2.21088150e+00  2.25558970e+00  2.38505350e+00
  2.39808063e+00  2.39808291e+00  2.50231886e+00  2.54884240e+00
  2.54884326e+00  2.56731786e+00  2.71091279e+00  2.71091385e+00
  2.71428021e+00  2.75160616e+00  2.79606574e+00  2.79606656e+00
  2.82770572e+00  2.82770748e+00  2.85855147e+00  2.88453623e+00
  2.88453656e+00  2.99884324e+00  3.05219326e+00  3.05219606e+00
  3.33642766e+00  3.41559809e+00  3.41559970e+00  3.71260183e+00
  3.71260507e+00  3.74021265e+00  3.81467588e+00  3.88687222e+00
  3.88687506e+00  4.01705195e+00  4.14926901e+00  4.14927182e+00
  5.79479511e+00  5.79479548e+00  5.81883011e+00  5.83921308e+00
  5.83921715e+00  5.84203540e+00  5.89770150e+00  6.18800718e+00
  6.18800773e+00  6.20655333e+00  6.20656255e+00  6.21013211e+00
  6.34553276e+00  6.34553502e+00  6.44547368e+00  6.49835402e+00
  6.49835622e+00  6.52633276e+00  6.84895671e+00  6.86471143e+00
  6.86472569e+00  6.88133815e+00  6.94303964e+00  6.94304367e+00
  7.36385405e+00  7.47231162e+00  7.47231856e+00  7.82619068e+00
  7.82619761e+00  7.91323838e+00  7.91326773e+00  7.93030622e+00
  8.01374984e+00  8.12720708e+00  8.12722048e+00  8.19985018e+00
  8.26094539e+00  8.26095891e+00  8.33242311e+00  8.44767726e+00
  8.48002437e+00  8.48002824e+00  8.60848672e+00  8.74836765e+00
  8.74838717e+00  8.81838175e+00  8.81995416e+00  8.81998068e+00
  9.41975311e+00  1.00657829e+01  1.00657830e+01  1.29210262e+01]
nelec by numeric integration = 8.000000343505315
    CPU time for vxc     33.11 sec, wall time      0.26 sec
    CPU time for df-vj      8.13 sec, wall time      0.06 sec
E1 = -24.43097330283837  Ecoul = 12.388340826546315  Exc = -2.6175329079513645
Extra cycle  E= -8.2643449831633  delta_E= 6.75e-14  |g|= 1.85e-06  |ddm|= 7.61e-06
    CPU time for scf_cycle    853.28 sec, wall time      6.98 sec
    CPU time for SCF    853.72 sec, wall time      6.98 sec
converged SCF energy = -8.2643449831633
