#INFO: **** input file is /home/nkousuke/lustre/toBeSync/turboRVB/05turbo-genius-development/turbogenius_paper/04data/sanity_checks/02pyscf_prep_LDA_via_trexio/00open_boundary/results/CO2/pyscf-LDA-workflow/run.py ****

from pyscf_wrapper import Pyscf_wrapper

# input variables
pyscf_chkfile="pyscf.chk"
structure_file="CO2.xyz"

# input variables
omp_num_threads=128
charge=0
spin=0
basis="ccecp-ccpvqz"
ecp="ccecp"
scf_method="DFT"
dft_xc="LDA_X,LDA_C_PZ"
solver_newton=False
MP2_flag=False
CCSD_flag=False
pyscf_output="out.pyscf"
twist_average=False
exp_to_discard=0.1
kpt=[0.0, 0.0, 0.0]
kpt_grid=[1, 1, 1]
smearing_method="fermi"
smearing_sigma=0.0

pyscf_calc=Pyscf_wrapper(
                        structure_file=structure_file,
                        chkfile=pyscf_chkfile,
                        )

pyscf_calc.run_pyscf(
                  omp_num_threads=omp_num_threads,
                  charge=charge,
                  spin=spin,
                  basis=basis,
                  ecp=ecp,
                  scf_method=scf_method,
                  dft_xc=dft_xc,
                  solver_newton=solver_newton,
                  MP2_flag=MP2_flag,
                  CCSD_flag=CCSD_flag,
                  pyscf_output=pyscf_output,
                  twist_average=twist_average,
                  exp_to_discard=exp_to_discard,
                  kpt=kpt,
                  kpt_grid=kpt_grid,
                  smearing_method=smearing_method,
                  smearing_sigma=smearing_sigma
                  )
                #INFO: ******************** input file end ********************


System: uname_result(system='Linux', node='spcc-205', release='5.4.0-66-generic', version='#74-Ubuntu SMP Wed Jan 27 22:54:38 UTC 2021', machine='x86_64', processor='x86_64')  Threads 128
Python 3.7.3 (default, Mar 27 2019, 22:11:17) 
[GCC 7.3.0]
numpy 1.20.1  scipy 1.7.3
Date: Thu Dec 22 05:33:22 2022
PySCF version 2.0.1
PySCF path  /home/nkousuke/application/anaconda3/lib/python3.7/site-packages/pyscf

[CONFIG] conf_file /home/nkousuke/.pyscf_conf.py
[INPUT] verbose = 5
[INPUT] max_memory = 507521.4453125 
[INPUT] num. atoms = 3
[INPUT] num. electrons = 16
[INPUT] charge = 0
[INPUT] spin (= nelec alpha-beta = 2S) = 0
[INPUT] symmetry False subgroup None
[INPUT] Mole.unit = A
[INPUT]  1 C      0.000000000000   0.000000000000   0.000000000000 AA    0.000000000000   0.000000000000   0.000000000000 Bohr
[INPUT]  2 O      0.000000000000   0.000000000000   1.160000000000 AA    0.000000000000   0.000000000000   2.192082304495 Bohr
[INPUT]  3 O      0.000000000000   0.000000000000  -1.160000000000 AA    0.000000000000   0.000000000000  -2.192082304495 Bohr
[INPUT] ---------------- BASIS SET ---------------- 
[INPUT] l, kappa, [nprim/nctr], expnt,             c_1 c_2 ...
[INPUT] C
[INPUT] 0    0    [9    /1   ]  13.073594         0.0051583
                                6.541187          0.0603424
                                4.573411          -0.1978471
                                1.637494          -0.081034
                                0.819297          0.2321726
                                0.409924          0.2914643
                                0.2313            0.4336405
                                0.102619          0.213194
                                0.051344          0.0049848
[INPUT] 0    0    [1    /1   ]  0.846879             1
[INPUT] 0    0    [1    /1   ]  0.269659             1
[INPUT] 0    0    [1    /1   ]  0.109576             1
[INPUT] 1    0    [9    /1   ]  9.934169          0.0209076
                                3.886955          0.0572698
                                1.871016          0.1122682
                                0.935757          0.2130082
                                0.468003          0.2835815
                                0.239473          0.3011207
                                0.117063          0.2016934
                                0.058547          0.0453575
                                0.029281          0.0029775
[INPUT] 1    0    [1    /1   ]  0.804681             1
[INPUT] 1    0    [1    /1   ]  0.313254             1
[INPUT] 1    0    [1    /1   ]  0.105389             1
[INPUT] 2    0    [1    /1   ]  2.01376              1
[INPUT] 2    0    [1    /1   ]  0.684884             1
[INPUT] 2    0    [1    /1   ]  0.240171             1
[INPUT] 3    0    [1    /1   ]  0.457302             1
[INPUT] 3    0    [1    /1   ]  1.32493              1
[INPUT] 4    0    [1    /1   ]  1.03418              1
[INPUT] O
[INPUT] 0    0    [9    /1   ]  54.775216         -0.0012444
                                25.616801         0.010733
                                11.980245         0.0018889
                                6.992317          -0.1742537
                                2.620277          0.0017622
                                1.225429          0.3161846
                                0.577797          0.4512023
                                0.268022          0.3121534
                                0.125346          0.0511167
[INPUT] 0    0    [1    /1   ]  1.351771             1
[INPUT] 0    0    [1    /1   ]  0.843157             1
[INPUT] 0    0    [1    /1   ]  0.22438              1
[INPUT] 1    0    [9    /1   ]  22.217266         0.0104866
                                10.74755          0.0366435
                                5.315785          0.0803674
                                2.660761          0.162701
                                1.331816          0.2377791
                                0.678626          0.2811422
                                0.333673          0.2643189
                                0.167017          0.1466014
                                0.083598          0.0458145
[INPUT] 1    0    [1    /1   ]  1.106737             1
[INPUT] 1    0    [1    /1   ]  0.452364             1
[INPUT] 1    0    [1    /1   ]  0.148562             1
[INPUT] 2    0    [1    /1   ]  4.008867             1
[INPUT] 2    0    [1    /1   ]  1.344331             1
[INPUT] 2    0    [1    /1   ]  0.455711             1
[INPUT] 3    0    [1    /1   ]  2.763115             1
[INPUT] 3    0    [1    /1   ]  0.876289             1
[INPUT] 4    0    [1    /1   ]  1.759081             1

nuclear repulsion = 30.1083585523448
number of shells = 42
number of NR pGTOs = 258
number of NR cGTOs = 162
basis = ccecp-ccpvqz
ecp = ccecp
CPU time:         7.72


******** <class 'pyscf.df.df_jk.density_fit.<locals>.DFHF'> ********
method = DFHF-RKS-RHF
initial guess = minao
damping factor = 0
level_shift factor = 0
DIIS = <class 'pyscf.scf.diis.CDIIS'>
diis_start_cycle = 1
diis_space = 8
SCF conv_tol = 1e-09
SCF conv_tol_grad = None
SCF max_cycles = 200
direct_scf = True
direct_scf_tol = 1e-13
chkfile to save SCF result = pyscf.chk
max_memory 507521 MB (current use 106 MB)
XC library pyscf.dft.libxc version 5.1.7
    S. Lehtola, C. Steigemann, M. J. Oliveira, and M. A. Marques, SoftwareX 7, 1 (2018)
XC functionals = LDA_X,LDA_C_PZ
    P. A. M. Dirac, Math. Proc. Cambridge Philos. Soc. 26, 376 (1930)
    F. Bloch, Z. Phys. 57, 545 (1929)
    J. P. Perdew and A. Zunger, Phys. Rev. B 23, 5048 (1981)
radial grids: 
    Treutler-Ahlrichs [JCP 102, 346 (1995); DOI:10.1063/1.469408] (M4) radial grids
    
becke partition: Becke, JCP 88, 2547 (1988); DOI:10.1063/1.454033
pruning grids: <function nwchem_prune at 0x154f8be177b8>
grids dens level: 3
symmetrized grids: False
atomic radii adjust function: <function treutler_atomic_radii_adjust at 0x154f8be176a8>
small_rho_cutoff = 1e-07
Set gradient conv threshold to 3.16228e-05
atom C rad-grids = 75, ang-grids = [ 50  50  50  50  50  50  50  50  50  50  50  50  50  50  50  50  50  50
  50  50  50  50  50  86  86  86  86  86  86  86  86  86  86 266 266 266
 266 266 266 266 302 302 302 302 302 302 302 302 302 302 302 302 302 302
 302 302 302 302 302 302 266 266 266 266 266 266 266 266 266 266 266 266
 266 266 266]
atom O rad-grids = 75, ang-grids = [ 50  50  50  50  50  50  50  50  50  50  50  50  50  50  50  50  50  50
  50  50  50  50  86  86  86  86  86  86  86  86  86 266 266 266 266 266
 266 266 302 302 302 302 302 302 302 302 302 302 302 302 302 302 302 302
 302 302 302 266 266 266 266 266 266 266 266 266 266 266 266 266 266 266
 266 266 266]
tot grids = 42426
Drop grids 2796
    CPU time for setting up grids     39.65 sec, wall time      0.34 sec
nelec by numeric integration = 15.999999447356384
    CPU time for vxc     35.31 sec, wall time      0.28 sec
Even tempered Gaussians are generated as DF auxbasis for  C O
  ETB auxbasis for C  [[0, [13.144064, 1]], [0, [6.572032, 1]], [0, [3.286016, 1]], [0, [1.643008, 1]], [0, [0.821504, 1]], [0, [0.410752, 1]], [0, [0.205376, 1]], [0, [0.102688, 1]], [1, [19.852159834527225, 1]], [1, [9.926079917263612, 1]], [1, [4.963039958631806, 1]], [1, [2.481519979315903, 1]], [1, [1.2407599896579515, 1]], [1, [0.6203799948289758, 1]], [1, [0.3101899974144879, 1]], [1, [0.15509499870724394, 1]], [1, [0.07754749935362197, 1]], [2, [14.991872, 1]], [2, [7.495936, 1]], [2, [3.747968, 1]], [2, [1.873984, 1]], [2, [0.936992, 1]], [2, [0.468496, 1]], [2, [0.234248, 1]], [2, [0.117124, 1]], [2, [0.058562, 1]], [3, [5.36701994787573, 1]], [3, [2.683509973937865, 1]], [3, [1.3417549869689325, 1]], [3, [0.6708774934844662, 1]], [3, [0.3354387467422331, 1]], [3, [0.16771937337111656, 1]], [4, [3.842736, 1]], [4, [1.921368, 1]], [4, [0.960684, 1]], [4, [0.480342, 1]]]
  ETB auxbasis for O  [[0, [64.177152, 1]], [0, [32.088576, 1]], [0, [16.044288, 1]], [0, [8.022144, 1]], [0, [4.011072, 1]], [0, [2.005536, 1]], [0, [1.002768, 1]], [0, [0.501384, 1]], [0, [0.250692, 1]], [1, [52.41108427692326, 1]], [1, [26.20554213846163, 1]], [1, [13.102771069230815, 1]], [1, [6.551385534615408, 1]], [1, [3.275692767307704, 1]], [1, [1.637846383653852, 1]], [1, [0.818923191826926, 1]], [1, [0.409461595913463, 1]], [1, [0.2047307979567315, 1]], [2, [42.802176, 1]], [2, [21.401088, 1]], [2, [10.700544, 1]], [2, [5.350272, 1]], [2, [2.675136, 1]], [2, [1.337568, 1]], [2, [0.668784, 1]], [2, [0.334392, 1]], [2, [0.167196, 1]], [3, [12.491732442583295, 1]], [3, [6.245866221291648, 1]], [3, [3.122933110645824, 1]], [3, [1.561466555322912, 1]], [3, [0.780733277661456, 1]], [3, [0.390366638830728, 1]], [4, [7.291376, 1]], [4, [3.645688, 1]], [4, [1.822844, 1]], [4, [0.911422, 1]]]
num shells = 110, num cGTOs = 476
    CPU time for df-vj     29.69 sec, wall time      0.24 sec
E1 = -118.81216625703277  Ecoul = 59.52676306968862  Exc = -8.222966308149623
init E= -37.4000109431489
cond(S) = 19188.68143991969
    CPU time for initialize scf    242.75 sec, wall time      2.16 sec
  HOMO = -0.430724678152401  LUMO = -0.0611602170544513
  mo_energy =
[-1.17049322 -1.14402088 -0.60291345 -0.57433285 -0.53623528 -0.53623528
 -0.43072468 -0.43072468 -0.06116022 -0.06116022 -0.0359455   0.1269834
  0.17056947  0.17056947  0.18357873  0.25294798  0.27867729  0.27867729
  0.33044389  0.39199714  0.39199715  0.4310493   0.4310493   0.68899372
  0.74066991  0.75018839  0.75018839  0.78550011  0.89902818  0.89902829
  1.08655573  1.13911218  1.17450222  1.17450235  1.20469072  1.20469072
  1.21910287  1.26099713  1.26099713  1.35377981  1.35377981  1.46052722
  1.46052722  1.70119726  1.7475419   1.74754215  1.85120494  1.85120494
  1.85479628  1.85479628  1.9055734   1.90557371  2.11224502  2.36775804
  2.49297498  2.49297498  2.49787988  2.53873126  2.53873126  2.74846721
  2.91994776  2.91994776  3.13480705  3.13480705  3.30935608  3.30935649
  3.41960963  3.5280301   3.52803369  3.67436425  3.67436425  3.74404733
  3.74405412  3.76254093  3.93100897  4.03495586  4.03495586  4.12701413
  4.12701751  4.31831422  4.31831422  4.42817369  4.72857125  4.72857139
  4.7686168   4.7686168   4.779437    4.93526037  4.93526037  5.24471726
  5.24471726  5.29363037  5.29363037  5.34862504  5.34862635  5.4493682
  5.52418362  5.73446284  5.73446284  5.79446623  5.79446962  6.31768569
  6.35156601  6.35156601  6.40135435  6.40528881  6.40528894  6.83916878
  6.83916878  6.98787713  6.98787713  7.64817774  7.75047631  8.17609799
  8.17620946  8.20490776  8.20501939  8.2363438   8.2363438   8.2514533
  8.55115598  8.55115598  8.70093973  8.70093973  9.045871    9.04587334
  9.05215083  9.70301505  9.70301505 10.06916946 10.16615603 10.16617155
 10.32546384 10.35367483 10.35367483 10.96746926 10.96746926 10.98913414
 10.98913414 11.1637803  11.16378538 11.52996228 11.52996601 11.891173
 11.891173   12.09284872 12.09284872 12.12478308 12.12490084 12.46298254
 12.4630904  12.68051861 12.79671617 13.42284627 13.53339772 13.53339772
 15.01959189 15.01959189 15.69920218 19.46854762 31.98405944 32.01033193]
nelec by numeric integration = 15.999999314950502
    CPU time for vxc     36.64 sec, wall time      0.29 sec
    CPU time for df-vj      3.03 sec, wall time      0.02 sec
E1 = -121.44931014050894  Ecoul = 62.661309968432434  Exc = -8.832774779714716
cycle= 1 E= -37.5124163994464  delta_E= -0.112  |g|= 0.865  |ddm|= 4.25
    CPU time for cycle= 1     55.99 sec, wall time      0.46 sec
  HOMO = -0.216877409483869  LUMO = 0.00509765715172119
  mo_energy =
[-1.02359373e+00 -9.59407197e-01 -4.47000986e-01 -4.47000986e-01
 -3.95809626e-01 -3.41975675e-01 -2.16877409e-01 -2.16877409e-01
  5.09765715e-03  4.08131839e-02  4.08131839e-02  1.75154551e-01
  1.75154551e-01  1.77292294e-01  2.69301997e-01  2.91148463e-01
  3.37591888e-01  3.37591888e-01  3.64400966e-01  3.77182529e-01
  3.77182531e-01  4.92821994e-01  4.92821994e-01  7.59824843e-01
  8.02607971e-01  8.02607971e-01  8.35481839e-01  9.02217100e-01
  9.69973589e-01  9.69973703e-01  1.12066498e+00  1.17275854e+00
  1.17275854e+00  1.22580128e+00  1.25551691e+00  1.25551715e+00
  1.29565939e+00  1.35313591e+00  1.35313591e+00  1.42406442e+00
  1.42406442e+00  1.45378869e+00  1.45378869e+00  1.70350487e+00
  1.70350494e+00  1.76466458e+00  1.92938010e+00  1.92938033e+00
  1.94941441e+00  1.94941441e+00  1.99946599e+00  1.99946599e+00
  2.19434909e+00  2.51891579e+00  2.57653632e+00  2.57653632e+00
  2.61235464e+00  2.61235464e+00  2.62193379e+00  2.83952395e+00
  3.02748372e+00  3.02748372e+00  3.25106304e+00  3.25106304e+00
  3.41838648e+00  3.41838673e+00  3.52059402e+00  3.71322122e+00
  3.71322448e+00  3.84402139e+00  3.84402139e+00  3.94598999e+00
  3.94798748e+00  3.94799487e+00  4.08867127e+00  4.17434266e+00
  4.17434266e+00  4.26404297e+00  4.26404710e+00  4.41297300e+00
  4.41297300e+00  4.54088414e+00  4.65942453e+00  4.65942513e+00
  4.86074194e+00  4.89033190e+00  4.89033190e+00  4.92994424e+00
  4.92994424e+00  5.22163718e+00  5.22163718e+00  5.23128659e+00
  5.23128659e+00  5.35254100e+00  5.35254170e+00  5.61756422e+00
  5.62356717e+00  5.78443751e+00  5.78443955e+00  5.80911430e+00
  5.80911430e+00  6.40228712e+00  6.40228780e+00  6.49820357e+00
  6.52887497e+00  6.55339203e+00  6.55339203e+00  7.03780849e+00
  7.03780849e+00  7.18941179e+00  7.18941179e+00  7.84493658e+00
  8.03581216e+00  8.35682566e+00  8.37235565e+00  8.37247080e+00
  8.40025498e+00  8.40037031e+00  8.42911369e+00  8.42911369e+00
  8.69287416e+00  8.69287416e+00  8.88296946e+00  8.88296946e+00
  9.21991697e+00  9.21991935e+00  9.24845500e+00  9.93743608e+00
  9.93743608e+00  1.03309803e+01  1.03521743e+01  1.03521888e+01
  1.05115808e+01  1.05569301e+01  1.05569301e+01  1.12625768e+01
  1.12625768e+01  1.12838894e+01  1.12838894e+01  1.14625074e+01
  1.14625132e+01  1.18210471e+01  1.18210513e+01  1.21906252e+01
  1.21906252e+01  1.23760953e+01  1.23760953e+01  1.24761602e+01
  1.24762811e+01  1.27932271e+01  1.27933400e+01  1.29665665e+01
  1.31020961e+01  1.36943707e+01  1.38356047e+01  1.38356047e+01
  1.53150319e+01  1.53150319e+01  1.59668487e+01  1.94442844e+01
  3.24357023e+01  3.24629253e+01]
nelec by numeric integration = 15.99999948493183
    CPU time for vxc     34.59 sec, wall time      0.28 sec
    CPU time for df-vj      6.33 sec, wall time      0.05 sec
E1 = -117.92446770691659  Ecoul = 58.65856263866014  Exc = -7.9381255906682275
cycle= 2 E= -37.0956721065798  delta_E= 0.417  |g|= 1.73  |ddm|= 2.56
    CPU time for cycle= 2    109.07 sec, wall time      0.88 sec
  HOMO = -0.325095274868542  LUMO = -0.0034907848335943
  mo_energy =
[-1.06410963e+00 -1.02514985e+00 -4.94647796e-01 -4.57434401e-01
 -4.57434401e-01 -4.53658874e-01 -3.25095275e-01 -3.25095275e-01
 -3.49078483e-03  5.13849895e-03  5.13849895e-03  1.50046166e-01
  1.86070575e-01  1.86070575e-01  2.33201688e-01  2.82817136e-01
  3.05208330e-01  3.05208330e-01  3.52313798e-01  4.01109905e-01
  4.01109922e-01  4.60284138e-01  4.60284138e-01  7.28854033e-01
  7.84048294e-01  7.84048294e-01  7.97170825e-01  8.69421765e-01
  9.38790761e-01  9.38790843e-01  1.11973945e+00  1.18734919e+00
  1.21564157e+00  1.21564173e+00  1.23114449e+00  1.23114449e+00
  1.26790451e+00  1.31313086e+00  1.31313086e+00  1.40507898e+00
  1.40507898e+00  1.46458413e+00  1.46458413e+00  1.75262911e+00
  1.76913912e+00  1.76913919e+00  1.91647008e+00  1.91647008e+00
  1.92150274e+00  1.92150274e+00  1.93144928e+00  1.93144949e+00
  2.16807704e+00  2.43454085e+00  2.54663211e+00  2.54663211e+00
  2.56252008e+00  2.59085511e+00  2.59085511e+00  2.82770706e+00
  2.97620012e+00  2.97620012e+00  3.19200198e+00  3.19200198e+00
  3.37469790e+00  3.37469801e+00  3.48321481e+00  3.62110412e+00
  3.62110747e+00  3.76093507e+00  3.76093507e+00  3.83567122e+00
  3.83567808e+00  3.85226490e+00  4.02669200e+00  4.11471311e+00
  4.11471311e+00  4.19271004e+00  4.19271338e+00  4.39376097e+00
  4.39376097e+00  4.50578720e+00  4.73714582e+00  4.73714638e+00
  4.84515873e+00  4.84515873e+00  4.87091170e+00  4.96956026e+00
  4.96956026e+00  5.30252196e+00  5.30252196e+00  5.32012155e+00
  5.32012155e+00  5.40634568e+00  5.40634652e+00  5.54680430e+00
  5.60836608e+00  5.81866077e+00  5.81866077e+00  5.84788599e+00
  5.84788834e+00  6.42161923e+00  6.46216622e+00  6.46216693e+00
  6.46248054e+00  6.46248054e+00  6.48557879e+00  6.94726079e+00
  6.94726079e+00  7.10009676e+00  7.10009676e+00  7.76295170e+00
  7.88910897e+00  8.26718998e+00  8.26730125e+00  8.29566510e+00
  8.29577653e+00  8.33280922e+00  8.33280922e+00  8.33793269e+00
  8.65249448e+00  8.65249448e+00  8.79366718e+00  8.79366718e+00
  9.14537152e+00  9.14537342e+00  9.17084259e+00  9.82135678e+00
  9.82135678e+00  1.02004403e+01  1.02678807e+01  1.02678956e+01
  1.04424681e+01  1.04663837e+01  1.04663837e+01  1.10978148e+01
  1.10978148e+01  1.11196114e+01  1.11196114e+01  1.12986412e+01
  1.12986467e+01  1.16643894e+01  1.16643936e+01  1.20329390e+01
  1.20329390e+01  1.22306735e+01  1.22306735e+01  1.22768733e+01
  1.22769912e+01  1.26091594e+01  1.26092681e+01  1.28283436e+01
  1.29418524e+01  1.35710477e+01  1.36809272e+01  1.36809272e+01
  1.51631839e+01  1.51631839e+01  1.58506354e+01  1.95679065e+01
  3.21785250e+01  3.22042145e+01]
nelec by numeric integration = 15.999999378128958
    CPU time for vxc     40.10 sec, wall time      0.32 sec
    CPU time for df-vj     12.47 sec, wall time      0.10 sec
E1 = -119.88971556299849  Ecoul = 60.57015783506084  Exc = -8.427668480210698
cycle= 3 E= -37.6388676558035  delta_E= -0.543  |g|= 0.112  |ddm|= 1.77
    CPU time for cycle= 3    123.49 sec, wall time      0.97 sec
  HOMO = -0.345722326430934  LUMO = -0.0190738410930805
  mo_energy =
[-1.09403355e+00 -1.05556634e+00 -5.14365634e-01 -4.81558381e-01
 -4.81558381e-01 -4.74649581e-01 -3.45722326e-01 -3.45722326e-01
 -1.90738411e-02 -1.90738411e-02 -1.65552754e-02  1.45970113e-01
  1.76468728e-01  1.76468728e-01  2.18530793e-01  2.72889460e-01
  2.99461767e-01  2.99461767e-01  3.46483143e-01  3.89170919e-01
  3.89170938e-01  4.53672788e-01  4.53672788e-01  7.18808833e-01
  7.71185348e-01  7.71185348e-01  7.85972700e-01  8.42452902e-01
  9.28474955e-01  9.28475015e-01  1.10669024e+00  1.17638923e+00
  1.20696584e+00  1.20696597e+00  1.20868328e+00  1.20868328e+00
  1.25291608e+00  1.30230537e+00  1.30230537e+00  1.39693315e+00
  1.39693315e+00  1.44956603e+00  1.44956603e+00  1.73657758e+00
  1.74508316e+00  1.74508325e+00  1.89557645e+00  1.89557645e+00
  1.90644505e+00  1.90644505e+00  1.91854382e+00  1.91854403e+00
  2.15349660e+00  2.42525502e+00  2.53116963e+00  2.53116963e+00
  2.54833767e+00  2.57506056e+00  2.57506056e+00  2.80033429e+00
  2.96392744e+00  2.96392744e+00  3.18084794e+00  3.18084794e+00
  3.35801700e+00  3.35801710e+00  3.46432836e+00  3.60112524e+00
  3.60112848e+00  3.74417246e+00  3.74417246e+00  3.81990637e+00
  3.81991310e+00  3.83690968e+00  4.00225744e+00  4.09923977e+00
  4.09923977e+00  4.18067160e+00  4.18067492e+00  4.36823201e+00
  4.36823201e+00  4.48398890e+00  4.71270735e+00  4.71270778e+00
  4.82607711e+00  4.82607711e+00  4.83944157e+00  4.94610885e+00
  4.94610885e+00  5.26864530e+00  5.26864530e+00  5.28847181e+00
  5.28847181e+00  5.37551423e+00  5.37551502e+00  5.52495472e+00
  5.58126765e+00  5.78732637e+00  5.78732637e+00  5.81714601e+00
  5.81714834e+00  6.39923669e+00  6.42947509e+00  6.42947577e+00
  6.43703277e+00  6.43703277e+00  6.45678433e+00  6.91860374e+00
  6.91860374e+00  7.07088629e+00  7.07088629e+00  7.73434423e+00
  7.85979778e+00  8.25115243e+00  8.25126342e+00  8.27960166e+00
  8.27971281e+00  8.30976782e+00  8.31459326e+00  8.31459326e+00
  8.62183589e+00  8.62183589e+00  8.77487135e+00  8.77487135e+00
  9.12261644e+00  9.12261811e+00  9.14246357e+00  9.79902349e+00
  9.79902349e+00  1.01751531e+01  1.02444810e+01  1.02444956e+01
  1.04136094e+01  1.04418684e+01  1.04418684e+01  1.10742323e+01
  1.10742323e+01  1.10958103e+01  1.10958103e+01  1.12759107e+01
  1.12759161e+01  1.16395393e+01  1.16395433e+01  1.20076764e+01
  1.20076764e+01  1.22037890e+01  1.22037890e+01  1.22485505e+01
  1.22486680e+01  1.25802777e+01  1.25803860e+01  1.27976489e+01
  1.29161086e+01  1.35368153e+01  1.36496938e+01  1.36496938e+01
  1.51332082e+01  1.51332082e+01  1.58152508e+01  1.95179445e+01
  3.21401074e+01  3.21663377e+01]
nelec by numeric integration = 15.99999937190478
    CPU time for vxc     39.24 sec, wall time      0.31 sec
    CPU time for df-vj      8.87 sec, wall time      0.07 sec
E1 = -120.20988393635977  Ecoul = 60.93937667844338  Exc = -8.479289346900378
cycle= 4 E= -37.6414380524719  delta_E= -0.00257  |g|= 0.0248  |ddm|= 0.191
    CPU time for cycle= 4     82.54 sec, wall time      0.66 sec
  HOMO = -0.34124168925048  LUMO = -0.0156079331785545
  mo_energy =
[-1.08870161e+00 -1.04995067e+00 -5.11147198e-01 -4.77422525e-01
 -4.77422525e-01 -4.71142954e-01 -3.41241689e-01 -3.41241689e-01
 -1.56079332e-02 -1.56079332e-02 -1.42743371e-02  1.46821980e-01
  1.77890084e-01  1.77890084e-01  2.20862442e-01  2.74123306e-01
  3.00772597e-01  3.00772597e-01  3.47570812e-01  3.91248265e-01
  3.91248280e-01  4.54902465e-01  4.54902465e-01  7.20522239e-01
  7.73760326e-01  7.73760326e-01  7.88089476e-01  8.46094539e-01
  9.31210592e-01  9.31210638e-01  1.10853716e+00  1.17847043e+00
  1.20920253e+00  1.20920265e+00  1.21119530e+00  1.21119530e+00
  1.25580171e+00  1.30448975e+00  1.30448975e+00  1.39851198e+00
  1.39851198e+00  1.45193027e+00  1.45193027e+00  1.73893743e+00
  1.74810106e+00  1.74810119e+00  1.89914338e+00  1.89914338e+00
  1.90974480e+00  1.90974480e+00  1.92112098e+00  1.92112119e+00
  2.15551560e+00  2.42709428e+00  2.53427005e+00  2.53427005e+00
  2.55112493e+00  2.57796246e+00  2.57796246e+00  2.80432027e+00
  2.96728710e+00  2.96728710e+00  3.18395654e+00  3.18395654e+00
  3.36162372e+00  3.36162381e+00  3.46804873e+00  3.60572323e+00
  3.60572642e+00  3.74745178e+00  3.74745178e+00  3.82357362e+00
  3.82358033e+00  3.83980553e+00  4.00643210e+00  4.10186448e+00
  4.10186448e+00  4.18336485e+00  4.18336817e+00  4.37210212e+00
  4.37210212e+00  4.48702627e+00  4.71571793e+00  4.71571835e+00
  4.82943550e+00  4.82943550e+00  4.84362822e+00  4.94992641e+00
  4.94992641e+00  5.27196007e+00  5.27196007e+00  5.29168600e+00
  5.29168600e+00  5.37975042e+00  5.37975137e+00  5.52846200e+00
  5.58499574e+00  5.79164783e+00  5.79164783e+00  5.82092379e+00
  5.82092629e+00  6.40320426e+00  6.43306148e+00  6.43306203e+00
  6.44127663e+00  6.44127663e+00  6.46100618e+00  6.92323278e+00
  6.92323278e+00  7.07582716e+00  7.07582716e+00  7.73861518e+00
  7.86501338e+00  8.25543544e+00  8.25554661e+00  8.28386968e+00
  8.28398101e+00  8.31356189e+00  8.31889347e+00  8.31889347e+00
  8.62648038e+00  8.62648038e+00  8.77916719e+00  8.77916719e+00
  9.12714404e+00  9.12714573e+00  9.14760768e+00  9.80342014e+00
  9.80342014e+00  1.01793541e+01  1.02491975e+01  1.02492120e+01
  1.04184789e+01  1.04462894e+01  1.04462894e+01  1.10793899e+01
  1.10793899e+01  1.11010190e+01  1.11010190e+01  1.12805262e+01
  1.12805316e+01  1.16445785e+01  1.16445826e+01  1.20124105e+01
  1.20124105e+01  1.22087908e+01  1.22087908e+01  1.22540240e+01
  1.22541417e+01  1.25858105e+01  1.25859190e+01  1.28028617e+01
  1.29205059e+01  1.35423191e+01  1.36551446e+01  1.36551446e+01
  1.51384694e+01  1.51384694e+01  1.58205650e+01  1.95215686e+01
  3.21465713e+01  3.21727202e+01]
nelec by numeric integration = 15.999999373758076
    CPU time for vxc     35.40 sec, wall time      0.28 sec
    CPU time for df-vj      7.87 sec, wall time      0.06 sec
E1 = -120.15401515756498  Ecoul = 60.87222908019083  Exc = -8.468120913102286
cycle= 5 E= -37.6415484381316  delta_E= -0.00011  |g|= 0.00313  |ddm|= 0.0249
    CPU time for cycle= 5    105.81 sec, wall time      0.84 sec
  HOMO = -0.340879515979111  LUMO = -0.0152910849066507
  mo_energy =
[-1.08839163e+00 -1.04960771e+00 -5.10571689e-01 -4.77144145e-01
 -4.77144145e-01 -4.70534582e-01 -3.40879516e-01 -3.40879516e-01
 -1.52910849e-02 -1.52910849e-02 -1.41973302e-02  1.46934292e-01
  1.77923260e-01  1.77923260e-01  2.21083238e-01  2.74253420e-01
  3.00872021e-01  3.00872021e-01  3.47662179e-01  3.91267791e-01
  3.91267806e-01  4.55011389e-01  4.55011389e-01  7.20722606e-01
  7.73913390e-01  7.73913390e-01  7.88300896e-01  8.46509106e-01
  9.31338363e-01  9.31338406e-01  1.10867793e+00  1.17864888e+00
  1.20933320e+00  1.20933332e+00  1.21133379e+00  1.21133379e+00
  1.25596585e+00  1.30469160e+00  1.30469160e+00  1.39874900e+00
  1.39874900e+00  1.45195727e+00  1.45195727e+00  1.73920087e+00
  1.74824399e+00  1.74824413e+00  1.89942151e+00  1.89942151e+00
  1.90998771e+00  1.90998771e+00  1.92123958e+00  1.92123980e+00
  2.15582349e+00  2.42744590e+00  2.53447393e+00  2.53447393e+00
  2.55141375e+00  2.57815703e+00  2.57815703e+00  2.80463817e+00
  2.96745669e+00  2.96745669e+00  3.18413084e+00  3.18413084e+00
  3.36184103e+00  3.36184112e+00  3.46823142e+00  3.60599266e+00
  3.60599584e+00  3.74783793e+00  3.74783793e+00  3.82392891e+00
  3.82393562e+00  3.84026776e+00  4.00678332e+00  4.10228341e+00
  4.10228341e+00  4.18367209e+00  4.18367541e+00  4.37237667e+00
  4.37237667e+00  4.48741909e+00  4.71583625e+00  4.71583667e+00
  4.82976856e+00  4.82976856e+00  4.84405151e+00  4.95011171e+00
  4.95011171e+00  5.27226124e+00  5.27226124e+00  5.29189608e+00
  5.29189608e+00  5.38003406e+00  5.38003503e+00  5.52893954e+00
  5.58540927e+00  5.79202780e+00  5.79202780e+00  5.82118072e+00
  5.82118325e+00  6.40365567e+00  6.43334860e+00  6.43334912e+00
  6.44171576e+00  6.44171576e+00  6.46133811e+00  6.92367210e+00
  6.92367210e+00  7.07625854e+00  7.07625854e+00  7.73911260e+00
  7.86557125e+00  8.25570678e+00  8.25581797e+00  8.28414102e+00
  8.28425236e+00  8.31396726e+00  8.31922626e+00  8.31922626e+00
  8.62691648e+00  8.62691648e+00  8.77948856e+00  8.77948856e+00
  9.12749412e+00  9.12749582e+00  9.14797699e+00  9.80388152e+00
  9.80388152e+00  1.01800229e+01  1.02495320e+01  1.02495466e+01
  1.04188885e+01  1.04467333e+01  1.04467333e+01  1.10798490e+01
  1.10798490e+01  1.11014710e+01  1.11014710e+01  1.12811134e+01
  1.12811188e+01  1.16450929e+01  1.16450970e+01  1.20130361e+01
  1.20130361e+01  1.22093388e+01  1.22093388e+01  1.22546279e+01
  1.22547456e+01  1.25863677e+01  1.25864762e+01  1.28034312e+01
  1.29212261e+01  1.35428824e+01  1.36557274e+01  1.36557274e+01
  1.51390711e+01  1.51390711e+01  1.58212034e+01  1.95220891e+01
  3.21473786e+01  3.21735386e+01]
nelec by numeric integration = 15.99999937396412
    CPU time for vxc     42.04 sec, wall time      0.34 sec
    CPU time for df-vj      8.00 sec, wall time      0.06 sec
E1 = -120.14804439964074  Ecoul = 60.864802309372344  Exc = -8.466666535636767
cycle= 6 E= -37.6415500735603  delta_E= -1.64e-06  |g|= 0.000286  |ddm|= 0.00375
    CPU time for cycle= 6    105.45 sec, wall time      0.83 sec
  HOMO = -0.340956950567885  LUMO = -0.015373282261389
  mo_energy =
[-1.08847607e+00 -1.04969226e+00 -5.10657789e-01 -4.77224783e-01
 -4.77224783e-01 -4.70620493e-01 -3.40956951e-01 -3.40956951e-01
 -1.53732823e-02 -1.53732823e-02 -1.42429720e-02  1.46908872e-01
  1.77884959e-01  1.77884959e-01  2.21031414e-01  2.74216287e-01
  3.00843352e-01  3.00843352e-01  3.47633387e-01  3.91218756e-01
  3.91218771e-01  4.54980238e-01  4.54980238e-01  7.20676593e-01
  7.73859654e-01  7.73859654e-01  7.88256682e-01  8.46429657e-01
  9.31289047e-01  9.31289090e-01  1.10862964e+00  1.17860536e+00
  1.20928753e+00  1.20928765e+00  1.21126449e+00  1.21126449e+00
  1.25591603e+00  1.30464728e+00  1.30464728e+00  1.39870792e+00
  1.39870792e+00  1.45190003e+00  1.45190003e+00  1.73914514e+00
  1.74816722e+00  1.74816736e+00  1.89934991e+00  1.89934991e+00
  1.90992669e+00  1.90992669e+00  1.92118642e+00  1.92118663e+00
  2.15576638e+00  2.42739461e+00  2.53441356e+00  2.53441356e+00
  2.55135345e+00  2.57809785e+00  2.57809785e+00  2.80455778e+00
  2.96739858e+00  2.96739858e+00  3.18407479e+00  3.18407479e+00
  3.36177598e+00  3.36177607e+00  3.46817044e+00  3.60591783e+00
  3.60592101e+00  3.74776951e+00  3.74776951e+00  3.82385775e+00
  3.82386445e+00  3.84019710e+00  4.00670453e+00  4.10221452e+00
  4.10221452e+00  4.18361148e+00  4.18361480e+00  4.37229840e+00
  4.37229840e+00  4.48734362e+00  4.71575665e+00  4.71575707e+00
  4.82969903e+00  4.82969903e+00  4.84396432e+00  4.95003334e+00
  4.95003334e+00  5.27216757e+00  5.27216757e+00  5.29180281e+00
  5.29180281e+00  5.37994361e+00  5.37994458e+00  5.52885956e+00
  5.58532518e+00  5.79193777e+00  5.79193777e+00  5.82109053e+00
  5.82109307e+00  6.40357477e+00  6.43325325e+00  6.43325376e+00
  6.44163277e+00  6.44163277e+00  6.46125416e+00  6.92358263e+00
  6.92358263e+00  7.07616572e+00  7.07616572e+00  7.73902924e+00
  7.86547691e+00  8.25563402e+00  8.25574521e+00  8.28406822e+00
  8.28417957e+00  8.31387982e+00  8.31915074e+00  8.31915074e+00
  8.62682008e+00  8.62682008e+00  8.77941256e+00  8.77941256e+00
  9.12741448e+00  9.12741618e+00  9.14789596e+00  9.80380126e+00
  9.80380126e+00  1.01799222e+01  1.02494535e+01  1.02494681e+01
  1.04188063e+01  1.04466498e+01  1.04466498e+01  1.10797587e+01
  1.10797587e+01  1.11013809e+01  1.11013809e+01  1.12810195e+01
  1.12810250e+01  1.16450031e+01  1.16450072e+01  1.20129397e+01
  1.20129397e+01  1.22092490e+01  1.22092490e+01  1.22545271e+01
  1.22546447e+01  1.25862700e+01  1.25863785e+01  1.28033412e+01
  1.29211226e+01  1.35427897e+01  1.36556307e+01  1.36556307e+01
  1.51389721e+01  1.51389721e+01  1.58211028e+01  1.95219688e+01
  3.21472652e+01  3.21734246e+01]
nelec by numeric integration = 15.999999373945272
    CPU time for vxc     35.18 sec, wall time      0.28 sec
    CPU time for df-vj      7.81 sec, wall time      0.06 sec
E1 = -120.14889326690783  Ecoul = 60.86580938717338  Exc = -8.466824763653193
cycle= 7 E= -37.6415500910428  delta_E= -1.75e-08  |g|= 2.34e-05  |ddm|= 0.000472
    CPU time for cycle= 7    105.37 sec, wall time      0.84 sec
  HOMO = -0.340952863335528  LUMO = -0.0153693091843349
  mo_energy =
[-1.08847190e+00 -1.04968802e+00 -5.10654324e-01 -4.77220856e-01
 -4.77220856e-01 -4.70617044e-01 -3.40952863e-01 -3.40952863e-01
 -1.53693092e-02 -1.53693092e-02 -1.42408542e-02  1.46909745e-01
  1.77886383e-01  1.77886383e-01  2.21033776e-01  2.74217528e-01
  3.00844583e-01  3.00844583e-01  3.47634286e-01  3.91220854e-01
  3.91220868e-01  4.54981423e-01  4.54981423e-01  7.20678292e-01
  7.73862059e-01  7.73862059e-01  7.88258615e-01  8.46433142e-01
  9.31291057e-01  9.31291100e-01  1.10863161e+00  1.17860690e+00
  1.20928925e+00  1.20928937e+00  1.21126750e+00  1.21126750e+00
  1.25591835e+00  1.30464896e+00  1.30464896e+00  1.39870912e+00
  1.39870912e+00  1.45190262e+00  1.45190262e+00  1.73914718e+00
  1.74817061e+00  1.74817075e+00  1.89935322e+00  1.89935322e+00
  1.90992979e+00  1.90992979e+00  1.92118861e+00  1.92118883e+00
  2.15576843e+00  2.42739652e+00  2.53441600e+00  2.53441600e+00
  2.55135583e+00  2.57810017e+00  2.57810017e+00  2.80456142e+00
  2.96740093e+00  2.96740093e+00  3.18407703e+00  3.18407703e+00
  3.36177857e+00  3.36177866e+00  3.46817330e+00  3.60592161e+00
  3.60592479e+00  3.74777231e+00  3.74777231e+00  3.82386121e+00
  3.82386791e+00  3.84019966e+00  4.00670817e+00  4.10221692e+00
  4.10221692e+00  4.18361380e+00  4.18361712e+00  4.37230186e+00
  4.37230186e+00  4.48734654e+00  4.71576037e+00  4.71576079e+00
  4.82970172e+00  4.82970172e+00  4.84396812e+00  4.95003674e+00
  4.95003674e+00  5.27217156e+00  5.27217156e+00  5.29180703e+00
  5.29180703e+00  5.37994740e+00  5.37994837e+00  5.52886286e+00
  5.58532869e+00  5.79194188e+00  5.79194188e+00  5.82109435e+00
  5.82109689e+00  6.40357882e+00  6.43325733e+00  6.43325784e+00
  6.44163721e+00  6.44163721e+00  6.46125793e+00  6.92358763e+00
  6.92358763e+00  7.07617033e+00  7.07617033e+00  7.73903356e+00
  7.86548225e+00  8.25563740e+00  8.25574859e+00  8.28407161e+00
  8.28418295e+00  8.31388363e+00  8.31915391e+00  8.31915391e+00
  8.62682447e+00  8.62682447e+00  8.77941583e+00  8.77941583e+00
  9.12741782e+00  9.12741952e+00  9.14789971e+00  9.80380477e+00
  9.80380477e+00  1.01799267e+01  1.02494572e+01  1.02494717e+01
  1.04188100e+01  1.04466535e+01  1.04466535e+01  1.10797640e+01
  1.10797640e+01  1.11013862e+01  1.11013862e+01  1.12810242e+01
  1.12810296e+01  1.16450079e+01  1.16450120e+01  1.20129442e+01
  1.20129442e+01  1.22092536e+01  1.22092536e+01  1.22545334e+01
  1.22546511e+01  1.25862761e+01  1.25863846e+01  1.28033458e+01
  1.29211273e+01  1.35427947e+01  1.36556362e+01  1.36556362e+01
  1.51389775e+01  1.51389775e+01  1.58211080e+01  1.95219741e+01
  3.21472735e+01  3.21734328e+01]
nelec by numeric integration = 15.999999373947439
    CPU time for vxc     41.27 sec, wall time      0.33 sec
    CPU time for df-vj      7.87 sec, wall time      0.06 sec
E1 = -120.14883573650175  Ecoul = 60.8657403446419  Exc = -8.466813251617646
cycle= 8 E= -37.6415500911327  delta_E= -8.99e-11  |g|= 7.43e-07  |ddm|= 3.3e-05
    CPU time for cycle= 8    114.39 sec, wall time      0.90 sec
  HOMO = -0.340953016698141  LUMO = -0.0153694488275482
  mo_energy =
[-1.08847207e+00 -1.04968820e+00 -5.10654457e-01 -4.77220988e-01
 -4.77220988e-01 -4.70617188e-01 -3.40953017e-01 -3.40953017e-01
 -1.53694488e-02 -1.53694488e-02 -1.42409129e-02  1.46909753e-01
  1.77886347e-01  1.77886347e-01  2.21033697e-01  2.74217501e-01
  3.00844582e-01  3.00844582e-01  3.47634292e-01  3.91220830e-01
  3.91220845e-01  4.54981398e-01  4.54981398e-01  7.20678243e-01
  7.73862021e-01  7.73862021e-01  7.88258559e-01  8.46433005e-01
  9.31291034e-01  9.31291077e-01  1.10863157e+00  1.17860685e+00
  1.20928922e+00  1.20928934e+00  1.21126741e+00  1.21126741e+00
  1.25591829e+00  1.30464892e+00  1.30464892e+00  1.39870910e+00
  1.39870910e+00  1.45190259e+00  1.45190259e+00  1.73914713e+00
  1.74817053e+00  1.74817067e+00  1.89935311e+00  1.89935311e+00
  1.90992969e+00  1.90992969e+00  1.92118859e+00  1.92118880e+00
  2.15576837e+00  2.42739646e+00  2.53441594e+00  2.53441594e+00
  2.55135576e+00  2.57810012e+00  2.57810012e+00  2.80456129e+00
  2.96740089e+00  2.96740089e+00  3.18407699e+00  3.18407699e+00
  3.36177850e+00  3.36177859e+00  3.46817321e+00  3.60592149e+00
  3.60592466e+00  3.74777222e+00  3.74777222e+00  3.82386110e+00
  3.82386781e+00  3.84019958e+00  4.00670803e+00  4.10221684e+00
  4.10221684e+00  4.18361375e+00  4.18361707e+00  4.37230174e+00
  4.37230174e+00  4.48734643e+00  4.71576030e+00  4.71576072e+00
  4.82970164e+00  4.82970164e+00  4.84396799e+00  4.95003667e+00
  4.95003667e+00  5.27217141e+00  5.27217141e+00  5.29180691e+00
  5.29180691e+00  5.37994728e+00  5.37994825e+00  5.52886273e+00
  5.58532856e+00  5.79194173e+00  5.79194173e+00  5.82109423e+00
  5.82109676e+00  6.40357865e+00  6.43325718e+00  6.43325770e+00
  6.44163701e+00  6.44163701e+00  6.46125779e+00  6.92358741e+00
  6.92358741e+00  7.07617013e+00  7.07617013e+00  7.73903336e+00
  7.86548199e+00  8.25563731e+00  8.25574849e+00  8.28407151e+00
  8.28418285e+00  8.31388348e+00  8.31915381e+00  8.31915381e+00
  8.62682429e+00  8.62682429e+00  8.77941573e+00  8.77941573e+00
  9.12741771e+00  9.12741940e+00  9.14789955e+00  9.80380463e+00
  9.80380463e+00  1.01799265e+01  1.02494571e+01  1.02494716e+01
  1.04188099e+01  1.04466534e+01  1.04466534e+01  1.10797638e+01
  1.10797638e+01  1.11013860e+01  1.11013860e+01  1.12810240e+01
  1.12810294e+01  1.16450077e+01  1.16450118e+01  1.20129440e+01
  1.20129440e+01  1.22092534e+01  1.22092534e+01  1.22545331e+01
  1.22546508e+01  1.25862758e+01  1.25863843e+01  1.28033456e+01
  1.29211271e+01  1.35427945e+01  1.36556359e+01  1.36556359e+01
  1.51389772e+01  1.51389772e+01  1.58211077e+01  1.95219739e+01
  3.21472730e+01  3.21734323e+01]
nelec by numeric integration = 15.999999373947322
    CPU time for vxc     32.10 sec, wall time      0.26 sec
    CPU time for df-vj      6.67 sec, wall time      0.05 sec
E1 = -120.1488391178329  Ecoul = 60.86574444682191  Exc = -8.46681397246664
Extra cycle  E= -37.6415500911328  delta_E= -1.42e-13  |g|= 8.76e-07  |ddm|= 2.06e-06
    CPU time for scf_cycle   1136.75 sec, wall time      9.27 sec
    CPU time for SCF   1137.20 sec, wall time      9.27 sec
converged SCF energy = -37.6415500911328
