#INFO: **** input file is /home/nkousuke/lustre/toBeSync/turboRVB/05turbo-genius-development/turbogenius_paper/04data/sanity_checks/02pyscf_prep_LDA_via_trexio/00open_boundary/results/HCl/pyscf-LDA-workflow/run.py ****

from pyscf_wrapper import Pyscf_wrapper

# input variables
pyscf_chkfile="pyscf.chk"
structure_file="HCl.xyz"

# input variables
omp_num_threads=128
charge=0
spin=0
basis="ccecp-ccpvqz"
ecp="ccecp"
scf_method="DFT"
dft_xc="LDA_X,LDA_C_PZ"
solver_newton=False
MP2_flag=False
CCSD_flag=False
pyscf_output="out.pyscf"
twist_average=False
exp_to_discard=0.1
kpt=[0.0, 0.0, 0.0]
kpt_grid=[1, 1, 1]
smearing_method="fermi"
smearing_sigma=0.0

pyscf_calc=Pyscf_wrapper(
                        structure_file=structure_file,
                        chkfile=pyscf_chkfile,
                        )

pyscf_calc.run_pyscf(
                  omp_num_threads=omp_num_threads,
                  charge=charge,
                  spin=spin,
                  basis=basis,
                  ecp=ecp,
                  scf_method=scf_method,
                  dft_xc=dft_xc,
                  solver_newton=solver_newton,
                  MP2_flag=MP2_flag,
                  CCSD_flag=CCSD_flag,
                  pyscf_output=pyscf_output,
                  twist_average=twist_average,
                  exp_to_discard=exp_to_discard,
                  kpt=kpt,
                  kpt_grid=kpt_grid,
                  smearing_method=smearing_method,
                  smearing_sigma=smearing_sigma
                  )
                #INFO: ******************** input file end ********************


System: uname_result(system='Linux', node='spcc-205', release='5.4.0-66-generic', version='#74-Ubuntu SMP Wed Jan 27 22:54:38 UTC 2021', machine='x86_64', processor='x86_64')  Threads 128
Python 3.7.3 (default, Mar 27 2019, 22:11:17) 
[GCC 7.3.0]
numpy 1.20.1  scipy 1.7.3
Date: Thu Dec 22 05:31:33 2022
PySCF version 2.0.1
PySCF path  /home/nkousuke/application/anaconda3/lib/python3.7/site-packages/pyscf

[CONFIG] conf_file /home/nkousuke/.pyscf_conf.py
[INPUT] verbose = 5
[INPUT] max_memory = 507521.296875 
[INPUT] num. atoms = 2
[INPUT] num. electrons = 8
[INPUT] charge = 0
[INPUT] spin (= nelec alpha-beta = 2S) = 0
[INPUT] symmetry False subgroup None
[INPUT] Mole.unit = A
[INPUT]  1 Cl     0.000000000000   0.000000000000   0.070800000000 AA    0.000000000000   0.000000000000   0.133792609619 Bohr
[INPUT]  2 H      0.000000000000   0.000000000000  -1.203600000000 AA    0.000000000000   0.000000000000  -2.274474363527 Bohr
[INPUT] ---------------- BASIS SET ---------------- 
[INPUT] l, kappa, [nprim/nctr], expnt,             c_1 c_2 ...
[INPUT] H
[INPUT] 0    0    [8    /1   ]  23.843185         0.0041149
                                10.212443         0.0104644
                                4.374164          0.0280111
                                1.873529          0.0758862
                                0.802465          0.1821062
                                0.343709          0.3485214
                                0.147217          0.3782313
                                0.063055          0.1164241
[INPUT] 0    0    [1    /1   ]  0.081856             1
[INPUT] 0    0    [1    /1   ]  0.233254             1
[INPUT] 0    0    [1    /1   ]  0.664673             1
[INPUT] 1    0    [1    /1   ]  0.284469             1
[INPUT] 1    0    [1    /1   ]  0.847159             1
[INPUT] 1    0    [1    /1   ]  2.522868             1
[INPUT] 2    0    [1    /1   ]  0.665279             1
[INPUT] 2    0    [1    /1   ]  2.048739             1
[INPUT] 3    0    [1    /1   ]  1.42146              1
[INPUT] Cl
[INPUT] 0    0    [10   /1   ]  15.583847         0.002501
                                8.858485          -0.010046
                                5.035519          0.08581
                                2.862391          -0.290136
                                1.627098          -0.140314
                                0.924908          0.146839
                                0.525755          0.392484
                                0.29886           0.425061
                                0.169884          0.227195
                                0.096569          0.059828
[INPUT] 0    0    [1    /1   ]  1.038268             1
[INPUT] 0    0    [1    /1   ]  0.418863             1
[INPUT] 0    0    [1    /1   ]  0.16898              1
[INPUT] 1    0    [10   /1   ]  7.682894          -0.004609
                                4.507558          -0.001798
                                2.644587          -0.068614
                                1.551581          0.062352
                                0.910313          0.166337
                                0.534081          0.282292
                                0.313346          0.275967
                                0.18384           0.241328
                                0.107859          0.110223
                                0.063281          0.040289
[INPUT] 1    0    [1    /1   ]  2.626653             1
[INPUT] 1    0    [1    /1   ]  1.069041             1
[INPUT] 1    0    [1    /1   ]  0.435097             1
[INPUT] 2    0    [1    /1   ]  2.102692             1
[INPUT] 2    0    [1    /1   ]  0.763188             1
[INPUT] 2    0    [1    /1   ]  0.277005             1
[INPUT] 3    0    [1    /1   ]  1.139446             1
[INPUT] 3    0    [1    /1   ]  0.434852             1
[INPUT] 4    0    [1    /1   ]  0.844301             1

nuclear repulsion = 2.90665448559322
number of shells = 24
number of NR pGTOs = 127
number of NR cGTOs = 84
basis = ccecp-ccpvqz
ecp = ccecp
CPU time:         7.89


******** <class 'pyscf.df.df_jk.density_fit.<locals>.DFHF'> ********
method = DFHF-RKS-RHF
initial guess = minao
damping factor = 0
level_shift factor = 0
DIIS = <class 'pyscf.scf.diis.CDIIS'>
diis_start_cycle = 1
diis_space = 8
SCF conv_tol = 1e-09
SCF conv_tol_grad = None
SCF max_cycles = 200
direct_scf = True
direct_scf_tol = 1e-13
chkfile to save SCF result = pyscf.chk
max_memory 507521 MB (current use 106 MB)
XC library pyscf.dft.libxc version 5.1.7
    S. Lehtola, C. Steigemann, M. J. Oliveira, and M. A. Marques, SoftwareX 7, 1 (2018)
XC functionals = LDA_X,LDA_C_PZ
    P. A. M. Dirac, Math. Proc. Cambridge Philos. Soc. 26, 376 (1930)
    F. Bloch, Z. Phys. 57, 545 (1929)
    J. P. Perdew and A. Zunger, Phys. Rev. B 23, 5048 (1981)
radial grids: 
    Treutler-Ahlrichs [JCP 102, 346 (1995); DOI:10.1063/1.469408] (M4) radial grids
    
becke partition: Becke, JCP 88, 2547 (1988); DOI:10.1063/1.454033
pruning grids: <function nwchem_prune at 0x14d5cf1bd7b8>
grids dens level: 3
symmetrized grids: False
atomic radii adjust function: <function treutler_atomic_radii_adjust at 0x14d5cf1bd6a8>
small_rho_cutoff = 1e-07
Set gradient conv threshold to 3.16228e-05
atom Cl rad-grids = 80, ang-grids = [ 50  50  50  50  50  50  50  50  50  50  50  50  50  50  50  50  50  50
  50  50  50  50  50  50  86  86  86  86  86  86  86  86  86  86  86  86
  86 350 350 350 350 350 350 350 350 350 434 434 434 434 434 434 434 434
 434 434 434 434 434 434 434 434 434 434 350 350 350 350 350 350 350 350
 350 350 350 350 350 350 350 350]
atom H rad-grids = 50, ang-grids = [ 50  50  50  50  50  50  50  50  50  50  50  50  50  50  86  86  86  86
 266 266 266 266 302 302 302 302 302 302 302 302 302 302 302 302 302 266
 266 266 266 266 266 266 266 266 266 266 266 266 266 266]
tot grids = 28904
Drop grids 1771
    CPU time for setting up grids     11.16 sec, wall time      0.09 sec
nelec by numeric integration = 7.999933067397733
    CPU time for vxc     33.77 sec, wall time      0.26 sec
Even tempered Gaussians are generated as DF auxbasis for  H Cl
  ETB auxbasis for H  [[0, [32.28416, 1]], [0, [16.14208, 1]], [0, [8.07104, 1]], [0, [4.03552, 1]], [0, [2.01776, 1]], [0, [1.00888, 1]], [0, [0.50444, 1]], [0, [0.25222, 1]], [0, [0.12611, 1]], [1, [8.571507550502421, 1]], [1, [4.2857537752512105, 1]], [1, [2.1428768876256052, 1]], [1, [1.0714384438128026, 1]], [1, [0.5357192219064013, 1]], [1, [0.26785961095320066, 1]], [2, [4.551504, 1]], [2, [2.275752, 1]], [2, [1.137876, 1]], [2, [0.568938, 1]]]
  ETB auxbasis for Cl  [[0, [24.721664, 1]], [0, [12.360832, 1]], [0, [6.180416, 1]], [0, [3.090208, 1]], [0, [1.545104, 1]], [0, [0.772552, 1]], [0, [0.386276, 1]], [0, [0.193138, 1]], [1, [20.012230625632515, 1]], [1, [10.006115312816258, 1]], [1, [5.003057656408129, 1]], [1, [2.5015288282040644, 1]], [1, [1.2507644141020322, 1]], [1, [0.6253822070510161, 1]], [1, [0.31269110352550805, 1]], [1, [0.15634555176275403, 1]], [2, [8.099968, 1]], [2, [4.049984, 1]], [2, [2.024992, 1]], [2, [1.012496, 1]], [2, [0.506248, 1]], [2, [0.253124, 1]], [2, [0.126562, 1]], [3, [4.236726694834115, 1]], [3, [2.1183633474170573, 1]], [3, [1.0591816737085287, 1]], [3, [0.5295908368542643, 1]], [3, [0.26479541842713217, 1]], [4, [4.43208, 1]], [4, [2.21604, 1]], [4, [1.10802, 1]], [4, [0.55401, 1]]]
num shells = 51, num cGTOs = 185
    CPU time for df-vj     33.83 sec, wall time      0.27 sec
E1 = -30.77027129163426  Ecoul = 15.589186302600757  Exc = -3.1255777056472436
init E= -15.4000082090875
cond(S) = 7754.731517656562
    CPU time for initialize scf    135.53 sec, wall time      1.13 sec
  HOMO = -0.321869599048742  LUMO = -0.0249236561547076
  mo_energy =
[-0.80620502 -0.43777127 -0.3218696  -0.3218696  -0.02492366  0.09477076
  0.22769136  0.22769136  0.26774874  0.28371522  0.28371524  0.35912941
  0.35912941  0.43913326  0.54796712  0.62108753  0.62108753  0.90515135
  0.97504456  1.21482065  1.21482071  1.23808158  1.23808158  1.25345759
  1.25345759  1.29387678  1.29387681  1.38012574  1.50711983  1.50711983
  1.62989317  2.06268176  2.06268195  2.14396692  2.14396692  2.28287943
  2.28287943  2.34742824  2.65181075  2.7730678   2.7730678   2.97823631
  3.10098065  3.49830444  3.49830444  3.52352088  3.52352137  3.66828519
  3.66828551  3.88542109  3.88542109  3.90677531  3.90677531  3.94593132
  3.94593186  4.04331784  4.23790395  4.23790395  4.28757716  4.54216629
  4.54216651  4.88268888  4.88268888  4.9779485   5.84568918  5.84568918
  6.46341943  6.46341968  6.67845018  7.12502862  7.13180767  7.13180767
  7.80301339  7.80302246  8.19140196  8.19140196  8.60628607  8.60628607
  8.96296196  9.95819303 10.86068386 10.86068386 12.12825771 17.31768743]
nelec by numeric integration = 7.999999999589164
    CPU time for vxc     28.14 sec, wall time      0.22 sec
    CPU time for df-vj      1.02 sec, wall time      0.01 sec
E1 = -31.158531884638755  Ecoul = 15.950697188415951  Exc = -3.182675050342813
cycle= 1 E= -15.4838552609724  delta_E= -0.0838  |g|= 0.133  |ddm|= 1.96
    CPU time for cycle= 1     67.07 sec, wall time      0.52 sec
  HOMO = -0.268251126695649  LUMO = -0.0261039184324552
  mo_energy =
[-0.7603466  -0.41755956 -0.26825113 -0.26825113 -0.02610392  0.09984144
  0.24738469  0.24738469  0.29159639  0.33149309  0.3314931   0.39112568
  0.39112568  0.45643311  0.5611591   0.6218643   0.6218643   0.90632616
  0.97069931  1.24272136  1.24272141  1.27746451  1.27746451  1.29966759
  1.29966759  1.35414271  1.35414278  1.41524265  1.53783576  1.53783576
  1.65088867  2.04637608  2.04637624  2.12570721  2.12570721  2.31713427
  2.31713427  2.33448946  2.70115101  2.77513253  2.77513253  2.97636392
  3.12393887  3.55085641  3.55085641  3.58774003  3.58774053  3.70888477
  3.70888506  3.95538853  3.95538853  3.95767395  3.95767395  4.00488048
  4.00488086  4.09787438  4.29336809  4.29336809  4.32746057  4.61620078
  4.61620092  4.92138714  4.92138714  4.97695751  5.80573035  5.80573035
  6.43855428  6.43855449  6.67000342  7.07643586  7.10067558  7.10067558
  7.74706782  7.74707638  8.13944281  8.13944281  8.5681325   8.5681325
  8.92646923  9.95080708 10.94266936 10.94266936 12.18094901 17.4045337 ]
nelec by numeric integration = 8.00000000006643
    CPU time for vxc     38.42 sec, wall time      0.31 sec
    CPU time for df-vj      7.50 sec, wall time      0.06 sec
E1 = -30.820057877592347  Ecoul = 15.542403390624843  Exc = -3.1113800182595157
cycle= 2 E= -15.4823800196338  delta_E= 0.00148  |g|= 0.154  |ddm|= 0.725
    CPU time for cycle= 2    105.65 sec, wall time      0.94 sec
  HOMO = -0.294314305475146  LUMO = -0.0288095698347343
  mo_energy =
[-0.78393013 -0.43373717 -0.29431431 -0.29431431 -0.02880957  0.09681183
  0.23613317  0.23613317  0.27602471  0.31004956  0.31004959  0.37526581
  0.37526581  0.44760288  0.55160163  0.61865521  0.61865521  0.90635535
  0.9685345   1.22929885  1.22929889  1.25574979  1.25574979  1.28080802
  1.28080802  1.32283747  1.32283758  1.39151839  1.51934624  1.51934624
  1.63779029  2.05251318  2.05251335  2.13380936  2.13380936  2.29638439
  2.29638439  2.33796578  2.6679229   2.77037933  2.77037933  2.97301622
  3.11020907  3.52510282  3.52510282  3.55950637  3.55950686  3.68866695
  3.68866719  3.92098077  3.92098077  3.92640361  3.92640361  3.96923959
  3.96923993  4.06820992  4.26088599  4.26088599  4.29860453  4.57513619
  4.57513632  4.89501219  4.89501219  4.97035732  5.82288187  5.82288187
  6.44867658  6.44867683  6.6725061   7.09447398  7.11374894  7.11374894
  7.77091252  7.77092128  8.1604208   8.1604208   8.58362788  8.58362788
  8.94201374  9.94846565 10.89337778 10.89337778 12.1458659  17.35329782]
nelec by numeric integration = 7.999999999714136
    CPU time for vxc     35.25 sec, wall time      0.28 sec
    CPU time for df-vj      8.06 sec, wall time      0.06 sec
E1 = -31.013112416504  Ecoul = 15.768371871727044  Exc = -3.151521264509791
cycle= 3 E= -15.4896073236935  delta_E= -0.00723  |g|= 0.0237  |ddm|= 0.417
    CPU time for cycle= 3     85.74 sec, wall time      0.68 sec
  HOMO = -0.294328864745356  LUMO = -0.0291368100236588
  mo_energy =
[-0.78450395 -0.43242387 -0.29432886 -0.29432886 -0.02913681  0.09658435
  0.23623815  0.23623815  0.27800228  0.30989591  0.30989592  0.37517277
  0.37517277  0.44702343  0.55182941  0.61835323  0.61835323  0.90510942
  0.96866052  1.22928143  1.22928148  1.25612146  1.25612146  1.28050286
  1.28050286  1.32299503  1.32299513  1.39299303  1.5202669   1.5202669
  1.63850591  2.05111466  2.05111483  2.13222052  2.13222052  2.2960278
  2.2960278   2.3361514   2.67116334  2.76990336  2.76990336  2.97206759
  3.10925603  3.52533249  3.52533249  3.55923894  3.55923942  3.68770516
  3.6877053   3.92110454  3.92110454  3.9268464   3.9268464   3.97142753
  3.971428    4.06831498  4.26288878  4.26288878  4.30125198  4.57565405
  4.5756542   4.89552542  4.89552542  4.97036538  5.82050803  5.82050803
  6.44643905  6.4464393   6.66987208  7.09276995  7.1114993   7.1114993
  7.76852701  7.76853578  8.15808124  8.15808124  8.58153791  8.58153791
  8.93948991  9.94809974 10.89452242 10.89452242 12.1468716  17.35427994]
nelec by numeric integration = 7.999999999726127
    CPU time for vxc     40.84 sec, wall time      0.32 sec
    CPU time for df-vj      4.58 sec, wall time      0.04 sec
E1 = -31.01132033556888  Ecoul = 15.765761195390798  Exc = -3.1508765007280735
cycle= 4 E= -15.4897811553129  delta_E= -0.000174  |g|= 0.00472  |ddm|= 0.025
    CPU time for cycle= 4     91.52 sec, wall time      0.72 sec
  HOMO = -0.293515368214592  LUMO = -0.0284826908746272
  mo_energy =
[-0.78323004 -0.43142209 -0.29351537 -0.29351537 -0.02848269  0.0970914
  0.23695295  0.23695295  0.27825289  0.31044742  0.31044745  0.37562841
  0.37562841  0.44764699  0.55238872  0.61889177  0.61889177  0.90577365
  0.96934732  1.22986931  1.22986935  1.25701865  1.25701865  1.28089485
  1.28089485  1.32389681  1.32389692  1.39387324  1.52093163  1.52093163
  1.63903249  2.05186784  2.05186801  2.13316577  2.13316577  2.2969807
  2.2969807   2.33717187  2.67189661  2.7707439   2.7707439   2.97317606
  3.110475    3.52613682  3.52613682  3.55989759  3.55989807  3.68884389
  3.688844    3.92213323  3.92213323  3.92814079  3.92814079  3.97235207
  3.97235245  4.06948587  4.26372173  4.26372173  4.30216469  4.57694416
  4.57694432  4.89691161  4.89691161  4.97168618  5.82163066  5.82163066
  6.44766897  6.44766922  6.67149419  7.09391234  7.11288116  7.11288116
  7.7697581   7.76976688  8.15933789  8.15933789  8.58284083  8.58284083
  8.94098955  9.94950296 10.89622505 10.89622505 12.14864245 17.35621637]
nelec by numeric integration = 7.999999999737088
    CPU time for vxc     37.72 sec, wall time      0.30 sec
    CPU time for df-vj      1.53 sec, wall time      0.01 sec
E1 = -31.00519568424942  Ecoul = 15.758212448254238  Exc = -3.1494588800662995
cycle= 5 E= -15.4897876304683  delta_E= -6.48e-06  |g|= 0.000315  |ddm|= 0.0157
    CPU time for cycle= 5     82.84 sec, wall time      0.65 sec
  HOMO = -0.293620336040951  LUMO = -0.0285808303088698
  mo_energy =
[-0.78336468 -0.43157426 -0.29362034 -0.29362034 -0.02858083  0.09701571
  0.23685293  0.23685293  0.27817768  0.31036359  0.31036361  0.37555837
  0.37555837  0.44756593  0.55229688  0.61880082  0.61880082  0.90569543
  0.96923165  1.22978411  1.22978415  1.25690923  1.25690923  1.2808235
  1.2808235   1.32378331  1.32378342  1.39374509  1.52082615  1.52082615
  1.63893442  2.05176439  2.05176457  2.13303906  2.13303906  2.29686153
  2.29686153  2.33704098  2.67175626  2.77062343  2.77062343  2.97303704
  3.11034859  3.52602928  3.52602928  3.55979954  3.55980002  3.6887291
  3.6887292   3.92200458  3.92200458  3.92799367  3.92799367  3.97220653
  3.97220686  4.06935101  4.26358716  4.26358716  4.30201313  4.57680024
  4.5768004   4.89675832  4.89675832  4.97150741  5.82149692  5.82149692
  6.44752432  6.44752457  6.6713299   7.09373109  7.11271111  7.11271111
  7.76959019  7.76959897  8.15915828  8.15915828  8.58266682  8.58266682
  8.94079864  9.94931149 10.8960565  10.8960565  12.14845794 17.35604438]
nelec by numeric integration = 7.999999999736979
    CPU time for vxc     41.96 sec, wall time      0.33 sec
    CPU time for df-vj      7.49 sec, wall time      0.06 sec
E1 = -31.00563973430095  Ecoul = 15.75877555593535  Exc = -3.14957796618065
cycle= 6 E= -15.489787658953  delta_E= -2.85e-08  |g|= 4.81e-05  |ddm|= 0.00151
    CPU time for cycle= 6     94.01 sec, wall time      0.74 sec
  HOMO = -0.293606651518273  LUMO = -0.0285721105284919
  mo_energy =
[-0.78334832 -0.43156065 -0.29360665 -0.29360665 -0.02857211  0.09702307
  0.23686271  0.23686271  0.27818223  0.31037435  0.31037438  0.37556641
  0.37556641  0.44757413  0.55230494  0.6188087   0.6188087   0.90570354
  0.96924112  1.22979278  1.22979281  1.25692046  1.25692046  1.28083247
  1.28083247  1.32379915  1.32379926  1.39375707  1.5208363   1.5208363
  1.63894288  2.05177453  2.0517747   2.13305255  2.13305255  2.29687622
  2.29687622  2.33705364  2.67176963  2.77063434  2.77063434  2.97305014
  3.11036246  3.52604192  3.52604192  3.55981379  3.55981427  3.68874238
  3.68874248  3.92202369  3.92202369  3.92800939  3.92800939  3.97222199
  3.97222232  4.06936687  4.26360122  4.26360122  4.30202623  4.57682131
  4.57682147  4.89677486  4.89677486  4.97152555  5.82151135  5.82151135
  6.4475391   6.44753935  6.67134755  7.09374905  7.11272903  7.11272903
  7.76960828  7.76961707  8.1591763   8.1591763   8.58268502  8.58268502
  8.94081807  9.94933181 10.89608142 10.89608142 12.14848098 17.35607092]
nelec by numeric integration = 7.999999999736982
    CPU time for vxc     44.14 sec, wall time      0.35 sec
    CPU time for df-vj      7.08 sec, wall time      0.05 sec
E1 = -31.00556586104255  Ecoul = 15.758682974020855  Exc = -3.1495592581924594
cycle= 7 E= -15.4897876596209  delta_E= -6.68e-10  |g|= 4.44e-06  |ddm|= 0.000228
    CPU time for cycle= 7     57.95 sec, wall time      0.46 sec
  HOMO = -0.293608439685639  LUMO = -0.0285734766061878
  mo_energy =
[-0.78335068 -0.43156243 -0.29360844 -0.29360844 -0.02857348  0.09702206
  0.23686133  0.23686133  0.27818184  0.31037301  0.31037303  0.37556538
  0.37556538  0.44757293  0.5523037   0.61880746  0.61880746  0.90570225
  0.96923975  1.22979161  1.22979164  1.25691892  1.25691892  1.2808314
  1.2808314   1.3237971   1.32379721  1.39375547  1.52083494  1.52083494
  1.6389418   2.05177289  2.05177306  2.13305056  2.13305056  2.29687412
  2.29687412  2.33705148  2.67176809  2.77063258  2.77063258  2.97304799
  3.11036027  3.52604026  3.52604026  3.55981208  3.55981256  3.68874033
  3.68874043  3.92202128  3.92202128  3.9280071   3.9280071   3.97222006
  3.97222038  4.06936471  4.26359949  4.26359949  4.30202452  4.57681852
  4.57681869  4.89677237  4.89677237  4.97152302  5.8215091   5.8215091
  6.44753673  6.44753698  6.67134477  7.09374655  7.11272646  7.11272646
  7.76960578  7.76961456  8.15917371  8.15917371  8.58268244  8.58268244
  8.94081532  9.9493291  10.896078   10.896078   12.14847771 17.35606718]
nelec by numeric integration = 7.999999999736973
    CPU time for vxc     38.67 sec, wall time      0.30 sec
    CPU time for df-vj      8.13 sec, wall time      0.06 sec
E1 = -31.005576577845783  Ecoul = 15.758696269554267  Exc = -3.1495618369233798
Extra cycle  E= -15.4897876596217  delta_E= -7.39e-13  |g|= 4.18e-06  |ddm|= 3.18e-05
    CPU time for scf_cycle    772.84 sec, wall time      6.25 sec
    CPU time for SCF    772.84 sec, wall time      6.25 sec
converged SCF energy = -15.4897876596217
