#INFO: **** input file is /home/nkousuke/lustre/toBeSync/turboRVB/05turbo-genius-development/turbogenius_paper/04data/sanity_checks/03pyscf_HF_turbo_VMC_via_trexio/00open_boundary/results/Ga/pyscf-HF-workflow/run.py ****

from pyscf_wrapper import Pyscf_wrapper

# input variables
pyscf_chkfile="pyscf.chk"
structure_file="Ga.xyz"

# input variables
omp_num_threads=128
charge=0
spin=1
basis="ccecp-ccpvqz"
ecp="ccecp"
scf_method="HF"
dft_xc="NA"
solver_newton=False
MP2_flag=False
CCSD_flag=False
pyscf_output="out.pyscf"
twist_average=False
exp_to_discard=0.0
kpt=[0.0, 0.0, 0.0]
kpt_grid=[1, 1, 1]
smearing_method="fermi"
smearing_sigma=0.0

pyscf_calc=Pyscf_wrapper(
                        structure_file=structure_file,
                        chkfile=pyscf_chkfile,
                        )

pyscf_calc.run_pyscf(
                  omp_num_threads=omp_num_threads,
                  charge=charge,
                  spin=spin,
                  basis=basis,
                  ecp=ecp,
                  scf_method=scf_method,
                  dft_xc=dft_xc,
                  solver_newton=solver_newton,
                  MP2_flag=MP2_flag,
                  CCSD_flag=CCSD_flag,
                  pyscf_output=pyscf_output,
                  twist_average=twist_average,
                  exp_to_discard=exp_to_discard,
                  kpt=kpt,
                  kpt_grid=kpt_grid,
                  smearing_method=smearing_method,
                  smearing_sigma=smearing_sigma
                  )
                #INFO: ******************** input file end ********************


System: uname_result(system='Linux', node='spcc-238', release='5.4.0-66-generic', version='#74-Ubuntu SMP Wed Jan 27 22:54:38 UTC 2021', machine='x86_64', processor='x86_64')  Threads 128
Python 3.7.3 (default, Mar 27 2019, 22:11:17) 
[GCC 7.3.0]
numpy 1.20.1  scipy 1.7.3
Date: Mon Dec 19 18:02:51 2022
PySCF version 2.0.1
PySCF path  /home/nkousuke/application/anaconda3/lib/python3.7/site-packages/pyscf

[CONFIG] conf_file /home/nkousuke/.pyscf_conf.py
[INPUT] verbose = 5
[INPUT] max_memory = 506346.13671875 
[INPUT] num. atoms = 1
[INPUT] num. electrons = 3
[INPUT] charge = 0
[INPUT] spin (= nelec alpha-beta = 2S) = 1
[INPUT] symmetry False subgroup None
[INPUT] Mole.unit = A
[INPUT]  1 Ga     0.000000000000   0.000000000000   0.000000000000 AA    0.000000000000   0.000000000000   0.000000000000 Bohr
[INPUT] ---------------- BASIS SET ---------------- 
[INPUT] l, kappa, [nprim/nctr], expnt,             c_1 c_2 ...
[INPUT] Ga
[INPUT] 0    0    [9    /1   ]  31.011369         -4.6e-05
                                13.757663         0.000207
                                6.103352          -0.008282
                                2.707648          0.085722
                                1.201202          -0.350699
                                0.532893          0.004567
                                0.236409          0.452968
                                0.104879          0.558187
                                0.046528          0.163319
[INPUT] 0    0    [1    /1   ]  0.382198             1
[INPUT] 0    0    [1    /1   ]  0.15525              1
[INPUT] 0    0    [1    /1   ]  0.063063             1
[INPUT] 1    0    [9    /1   ]  15.391968         -0.00012
                                6.919798          -0.000202
                                3.110948          0.008853
                                1.398595          -0.073708
                                0.628769          0.02826
                                0.282677          0.221463
                                0.127084          0.41332
                                0.057133          0.385686
                                0.025686          0.112292
[INPUT] 1    0    [1    /1   ]  0.303209             1
[INPUT] 1    0    [1    /1   ]  0.113225             1
[INPUT] 1    0    [1    /1   ]  0.042281             1
[INPUT] 2    0    [1    /1   ]  0.373226             1
[INPUT] 2    0    [1    /1   ]  0.173594             1
[INPUT] 2    0    [1    /1   ]  0.080742             1
[INPUT] 3    0    [1    /1   ]  0.450135             1
[INPUT] 3    0    [1    /1   ]  0.175748             1
[INPUT] 4    0    [1    /1   ]  0.406448             1

nuclear repulsion = 0
number of shells = 14
number of NR pGTOs = 86
number of NR cGTOs = 54
basis = ccecp-ccpvqz
ecp = ccecp
CPU time:         5.47


******** <class 'pyscf.scf.rohf.ROHF'> ********
method = ROHF-RHF
initial guess = minao
damping factor = 0
level_shift factor = 0
DIIS = <class 'pyscf.scf.diis.CDIIS'>
diis_start_cycle = 1
diis_space = 8
SCF conv_tol = 1e-09
SCF conv_tol_grad = None
SCF max_cycles = 200
direct_scf = True
direct_scf_tol = 1e-13
chkfile to save SCF result = pyscf.chk
max_memory 506346 MB (current use 106 MB)
num. doubly occ = 1  num. singly occ = 1
Set gradient conv threshold to 3.16228e-05
E1 = -2.8972354446690542  Ecoul = 1.019404074891726
init E= -1.87783136977733
cond(S) = 2153.9164948088537
    CPU time for initialize scf     62.99 sec, wall time      0.67 sec

WARN: HOMO -0.00413311073468202 >= LUMO -0.00413311073468423

                  Roothaan           | alpha              | beta
  Highest 2-occ = -0.431787388780073 | -0.431787388780073 | -0.431787388780073
  Lowest 0-occ =  -0.00413311073468423 | -0.00413311073468338 | -0.00413311073468338
  1-occ =         -0.00413311073468202 | -0.00413311073468338 | -0.00413311073468338
  Roothaan mo_energy =
[-4.31787389e-01 -4.13311073e-03 -4.13311073e-03 -4.13311073e-03
  1.90280736e-01  1.90280736e-01  1.90280736e-01  2.00528871e-01
  2.12321836e-01  2.12321836e-01  2.12321836e-01  2.12321836e-01
  2.12321836e-01  6.35363008e-01  6.35363008e-01  6.35363008e-01
  6.35363008e-01  6.35363008e-01  6.71122201e-01  6.71122201e-01
  6.71122201e-01  6.71122201e-01  6.71122201e-01  6.71122201e-01
  6.71122201e-01  8.22817646e-01  8.22817646e-01  8.22817646e-01
  1.14645083e+00  1.68047369e+00  1.68047369e+00  1.68047369e+00
  1.68047369e+00  1.68047369e+00  1.97814449e+00  1.97814449e+00
  1.97814449e+00  1.97814449e+00  1.97814449e+00  1.97814449e+00
  1.97814449e+00  1.99742847e+00  1.99742847e+00  1.99742847e+00
  1.99742847e+00  1.99742847e+00  1.99742847e+00  1.99742847e+00
  1.99742847e+00  1.99742847e+00  5.56983164e+00  5.56983164e+00
  5.56983164e+00  6.67546204e+00]
E1 = -2.8302502196878763  Ecoul = 0.8556200123187648
cycle= 1 E= -1.97463020736911  delta_E= -0.0968  |g|= 0.0495  |ddm|= 0.798
    CPU time for cycle= 1     28.15 sec, wall time      0.22 sec
  HOMO = -0.0857906652491831  LUMO = 0.00758255242923012
                  Roothaan           | alpha              | beta
  Highest 2-occ = -0.460688317702545 | -0.484657269623127 | -0.436719365781965
  Lowest 0-occ =  0.00758255242923012 | 0.00125985581289251 | 0.0139052490455679
  1-occ =         -0.0857906652491831 | -0.202418420113472 | 0.0472387966653571
  Roothaan mo_energy =
[-0.46068832 -0.08579067  0.00758255  0.00758255  0.17821643  0.17821643
  0.18334463  0.18796344  0.19832968  0.19832968  0.20228401  0.20228401
  0.20415554  0.60654224  0.60654224  0.61766902  0.61766902  0.62130366
  0.64017368  0.64017368  0.65129869  0.65129869  0.65786352  0.65786352
  0.65995104  0.78962277  0.78962277  0.80443505  1.11409793  1.63571328
  1.63571328  1.64922051  1.64922051  1.65391313  1.92840387  1.92840387
  1.9408137   1.9408137   1.94778358  1.94778358  1.9483442   1.9483442
  1.95086651  1.95956639  1.95956639  1.96806521  1.96806521  1.97319838
  1.97319838  1.97491519  5.52158764  5.52158764  5.53057096  6.62644717]
E1 = -2.8872855075424653  Ecoul = 0.9038470481032743
cycle= 2 E= -1.98343845943919  delta_E= -0.00881  |g|= 0.0165  |ddm|= 0.417
    CPU time for cycle= 2     34.24 sec, wall time      0.27 sec
  HOMO = -0.0668831303580059  LUMO = 0.0234985488682942
                  Roothaan           | alpha              | beta
  Highest 2-occ =  -0.43554641414249 | -0.467374440047692 | -0.407520035682064
  Lowest 0-occ =  0.0234985488682942 | 0.0160062925729583 | 0.0286750950488038
  1-occ =         -0.0668831303580059 | -0.204983264938216 | 0.0737308462709711
  Roothaan mo_energy =
[-0.43554641 -0.06688313  0.02349855  0.02349855  0.18717185  0.19181736
  0.19181736  0.19629952  0.20766097  0.20766097  0.2124462   0.2124462
  0.2155282   0.62592647  0.62592647  0.63669688  0.63669688  0.64024307
  0.65674808  0.65674808  0.66875779  0.66875779  0.67586656  0.67586656
  0.67809225  0.81532518  0.81532518  0.83024232  1.14302619  1.66704275
  1.66704275  1.68259361  1.68259361  1.68803916  1.96007751  1.96007751
  1.97490756  1.97490756  1.97538195  1.97538195  1.98391889  1.98391889
  1.98693616  1.98936153  1.98936153  1.99946029  1.99946029  2.0055668
  2.0055668   2.00761044  5.56368197  5.56368197  5.57485101  6.672839  ]
E1 = -2.896279380225505  Ecoul = 0.9121345208605212
cycle= 3 E= -1.98414485936498  delta_E= -0.000706  |g|= 0.00654  |ddm|= 0.145
    CPU time for cycle= 3     30.20 sec, wall time      0.24 sec
  HOMO = -0.0632778223657657  LUMO = 0.0250949946854922
                  Roothaan           | alpha              | beta
  Highest 2-occ =   -0.4317414337312 | -0.464294873039061 | -0.401171604244656
  Lowest 0-occ =  0.0250949946854922 | 0.0184513166325637 | 0.0310595755662651
  1-occ =         -0.0632778223657657 | -0.206557155946045 | 0.0794533492473245
  Roothaan mo_energy =
[-0.43174143 -0.06327782  0.02509499  0.02509499  0.18447223  0.1935769
  0.1935769   0.19856783  0.20889862  0.20889862  0.21411424  0.21411424
  0.21776563  0.62812499  0.62812499  0.6389361   0.6389361   0.64244924
  0.65881826  0.65881826  0.67123445  0.67123445  0.67857872  0.67857872
  0.68083278  0.81816091  0.81816091  0.83303762  1.14652438  1.66969012
  1.66969012  1.68600264  1.68600264  1.69172848  1.96263475  1.96263475
  1.9779461   1.9779461   1.97832819  1.97832819  1.98787841  1.98787841
  1.99106787  1.99269514  1.99269514  2.00336901  2.00336901  2.00983101
  2.00983101  2.0119949   5.56600554  5.56600554  5.57800132  6.67564516]
E1 = -2.897051315459059  Ecoul = 0.9128417139314082
cycle= 4 E= -1.98420960152765  delta_E= -6.47e-05  |g|= 0.000355  |ddm|= 0.0611
    CPU time for cycle= 4     31.22 sec, wall time      0.24 sec
  HOMO = -0.0638072814959221  LUMO = 0.0249804839200058
                  Roothaan           | alpha              | beta
  Highest 2-occ = -0.431854320445857 | -0.463908558874278 | -0.399899617312996
  Lowest 0-occ =  0.0249804839200058 | 0.0186569423642549 | 0.0312626516883265
  1-occ =         -0.0638072814959221 | -0.207559729400544 | 0.0800965339732954
  Roothaan mo_energy =
[-0.43185432 -0.06380728  0.02498048  0.02498048  0.18483687  0.1935192
  0.1935192   0.19850523  0.2088385   0.2088385   0.21401669  0.21401669
  0.21764541  0.62801173  0.62801173  0.63882719  0.63882719  0.64234778
  0.65871117  0.65871117  0.67110679  0.67110679  0.67843996  0.67843996
  0.68069683  0.81802028  0.81802028  0.83282418  1.14636419  1.66951871
  1.66951871  1.68580954  1.68580954  1.69152534  1.96244882  1.96244882
  1.97776569  1.97776569  1.97812925  1.97812925  1.98766911  1.98766911
  1.99085504  1.99249945  1.99249945  2.00315983  2.00315983  2.00961272
  2.00961272  2.01177341  5.56583148  5.56583148  5.57782723  6.67546136]
E1 = -2.897179522488624  Ecoul = 0.9129697468155404
cycle= 5 E= -1.98420977567308  delta_E= -1.74e-07  |g|= 5.4e-05  |ddm|= 0.0034
    CPU time for cycle= 5     38.39 sec, wall time      0.30 sec
  HOMO = -0.0637266378546738  LUMO = 0.0249826672014204
                  Roothaan           | alpha              | beta
  Highest 2-occ = -0.431843483705512 | -0.463856019122259 | -0.399795006158415
  Lowest 0-occ =  0.0249826672014204 | 0.0186911990601451 | 0.0312981912768036
  1-occ =         -0.0637266378546738 | -0.207589005203101 | 0.0801495782323266
  Roothaan mo_energy =
[-0.43184348 -0.06372664  0.02498267  0.02498267  0.18474998  0.19352446
  0.19352446  0.19851492  0.20884302  0.20884302  0.21402477  0.21402477
  0.21765753  0.62801779  0.62801779  0.63882669  0.63882669  0.64234609
  0.65871829  0.65871829  0.6711138   0.6711138   0.67844701  0.67844701
  0.68070453  0.81802473  0.81802473  0.83282952  1.14636505  1.66952043
  1.66952043  1.68581248  1.68581248  1.69152859  1.96245046  1.96245046
  1.97776994  1.97776994  1.97813238  1.97813238  1.98767292  1.98767292
  1.99085916  1.99250526  1.99250526  2.00316651  2.00316651  2.00961981
  2.00961981  2.01178063  5.56582608  5.56582608  5.5778232   6.67545583]
E1 = -2.8971391970954485  Ecoul = 0.9129294171858332
cycle= 6 E= -1.98420977990962  delta_E= -4.24e-09  |g|= 6.38e-06  |ddm|= 0.000474
    CPU time for cycle= 6     16.34 sec, wall time      0.13 sec
  HOMO = -0.0637295646989243  LUMO = 0.024984127513376
                  Roothaan           | alpha              | beta
  Highest 2-occ = -0.431840292225611 | -0.463870278725381 | -0.399816105391048
  Lowest 0-occ =   0.024984127513376 | 0.0186792834449966 | 0.0312861290927602
  1-occ =         -0.0637295646989243 | -0.207593978552034 | 0.0801346180344392
  Roothaan mo_energy =
[-0.43184029 -0.06372956  0.02498413  0.02498413  0.18475371  0.19352637
  0.19352637  0.19851736  0.20884445  0.20884445  0.21402597  0.21402597
  0.21765867  0.62802034  0.62802034  0.63882918  0.63882918  0.64234843
  0.65872079  0.65872079  0.6711162   0.6711162   0.67844935  0.67844935
  0.68070675  0.81802781  0.81802781  0.83283243  1.14636876  1.66952362
  1.66952362  1.6858158   1.6858158   1.69153193  1.96245373  1.96245373
  1.97777325  1.97777325  1.97813589  1.97813589  1.98767658  1.98767658
  1.99086284  1.99250875  1.99250875  2.00317015  2.00317015  2.00962356
  2.00962356  2.01178441  5.56582889  5.56582889  5.57782638  6.67545891]
E1 = -2.8971445908145768  Ecoul = 0.9129348107580499
cycle= 7 E= -1.98420978005653  delta_E= -1.47e-10  |g|= 1.1e-06  |ddm|= 9.86e-05
    CPU time for cycle= 7     27.64 sec, wall time      0.22 sec
  HOMO = -0.0637286272754909  LUMO = 0.024984234383514
                  Roothaan           | alpha              | beta
  Highest 2-occ = -0.431840083947222 | -0.463868158320461 | -0.399812009573983
  Lowest 0-occ =   0.024984234383514 | 0.0186808183648998 | 0.0312876504021287
  1-occ =         -0.0637286272754909 | -0.207594801405955 | 0.0801371145554684
  Roothaan mo_energy =
[-0.43184008 -0.06372863  0.02498423  0.02498423  0.18475312  0.19352641
  0.19352641  0.19851733  0.20884447  0.20884447  0.21402605  0.21402605
  0.21765874  0.62802043  0.62802043  0.63882924  0.63882924  0.64234846
  0.65872085  0.65872085  0.67111627  0.67111627  0.67844942  0.67844942
  0.68070681  0.81802796  0.81802796  0.8328324   1.14636889  1.66952384
  1.66952384  1.685816    1.685816    1.69153214  1.96245396  1.96245396
  1.97777344  1.97777344  1.9781361   1.9781361   1.98767679  1.98767679
  1.99086306  1.99250892  1.99250892  2.00317032  2.00317032  2.00962373
  2.00962373  2.01178458  5.56582927  5.56582927  5.57782672  6.67545933]
E1 = -2.8971438734550334  Ecoul = 0.9129340933939978
Extra cycle  E= -1.98420978006104  delta_E= -4.51e-12  |g|= 4.68e-07  |ddm|= 1.16e-05
    CPU time for scf_cycle    335.07 sec, wall time      2.80 sec
    CPU time for SCF    335.07 sec, wall time      2.80 sec
converged SCF energy = -1.98420978006104
