#INFO: **** input file is /home/nkousuke/lustre/toBeSync/turboRVB/05turbo-genius-development/turbogenius_paper/04data/sanity_checks/03pyscf_HF_turbo_VMC_via_trexio/00open_boundary/results/C2H6/pyscf-HF-workflow/run.py ****

from pyscf_wrapper import Pyscf_wrapper

# input variables
pyscf_chkfile="pyscf.chk"
structure_file="C2H6.xyz"

# input variables
omp_num_threads=128
charge=0
spin=0
basis="ccecp-ccpvqz"
ecp="ccecp"
scf_method="HF"
dft_xc="NA"
solver_newton=False
MP2_flag=False
CCSD_flag=False
pyscf_output="out.pyscf"
twist_average=False
exp_to_discard=0.0
kpt=[0.0, 0.0, 0.0]
kpt_grid=[1, 1, 1]
smearing_method="fermi"
smearing_sigma=0.0

pyscf_calc=Pyscf_wrapper(
                        structure_file=structure_file,
                        chkfile=pyscf_chkfile,
                        )

pyscf_calc.run_pyscf(
                  omp_num_threads=omp_num_threads,
                  charge=charge,
                  spin=spin,
                  basis=basis,
                  ecp=ecp,
                  scf_method=scf_method,
                  dft_xc=dft_xc,
                  solver_newton=solver_newton,
                  MP2_flag=MP2_flag,
                  CCSD_flag=CCSD_flag,
                  pyscf_output=pyscf_output,
                  twist_average=twist_average,
                  exp_to_discard=exp_to_discard,
                  kpt=kpt,
                  kpt_grid=kpt_grid,
                  smearing_method=smearing_method,
                  smearing_sigma=smearing_sigma
                  )
                #INFO: ******************** input file end ********************


System: uname_result(system='Linux', node='spcc-200', release='5.4.0-66-generic', version='#74-Ubuntu SMP Wed Jan 27 22:54:38 UTC 2021', machine='x86_64', processor='x86_64')  Threads 128
Python 3.7.3 (default, Mar 27 2019, 22:11:17) 
[GCC 7.3.0]
numpy 1.20.1  scipy 1.7.3
Date: Mon Dec 19 18:10:19 2022
PySCF version 2.0.1
PySCF path  /home/nkousuke/application/anaconda3/lib/python3.7/site-packages/pyscf

[CONFIG] conf_file /home/nkousuke/.pyscf_conf.py
[INPUT] verbose = 5
[INPUT] max_memory = 507515.046875 
[INPUT] num. atoms = 8
[INPUT] num. electrons = 14
[INPUT] charge = 0
[INPUT] spin (= nelec alpha-beta = 2S) = 0
[INPUT] symmetry False subgroup None
[INPUT] Mole.unit = A
[INPUT]  1 C      0.000000000000   0.000000000000   0.761300000000 AA    0.000000000000   0.000000000000   1.438648498631 Bohr
[INPUT]  2 C      0.000000000000   0.000000000000  -0.761300000000 AA    0.000000000000   0.000000000000  -1.438648498631 Bohr
[INPUT]  3 H      0.000000000000   1.015400000000   1.155150000000 AA    0.000000000000   1.918827906883   2.182917132791 Bohr
[INPUT]  4 H     -0.879360000000  -0.507700000000   1.155150000000 AA   -1.661749564898  -0.959413953442   2.182917132791 Bohr
[INPUT]  5 H      0.879360000000  -0.507700000000   1.155150000000 AA    1.661749564898  -0.959413953442   2.182917132791 Bohr
[INPUT]  6 H      0.000000000000  -1.015400000000  -1.155150000000 AA    0.000000000000  -1.918827906883  -2.182917132791 Bohr
[INPUT]  7 H     -0.879360000000   0.507700000000  -1.155150000000 AA   -1.661749564898   0.959413953442  -2.182917132791 Bohr
[INPUT]  8 H      0.879360000000   0.507700000000  -1.155150000000 AA    1.661749564898   0.959413953442  -2.182917132791 Bohr
[INPUT] ---------------- BASIS SET ---------------- 
[INPUT] l, kappa, [nprim/nctr], expnt,             c_1 c_2 ...
[INPUT] C
[INPUT] 0    0    [9    /1   ]  13.073594         0.0051583
                                6.541187          0.0603424
                                4.573411          -0.1978471
                                1.637494          -0.081034
                                0.819297          0.2321726
                                0.409924          0.2914643
                                0.2313            0.4336405
                                0.102619          0.213194
                                0.051344          0.0049848
[INPUT] 0    0    [1    /1   ]  0.846879             1
[INPUT] 0    0    [1    /1   ]  0.269659             1
[INPUT] 0    0    [1    /1   ]  0.109576             1
[INPUT] 1    0    [9    /1   ]  9.934169          0.0209076
                                3.886955          0.0572698
                                1.871016          0.1122682
                                0.935757          0.2130082
                                0.468003          0.2835815
                                0.239473          0.3011207
                                0.117063          0.2016934
                                0.058547          0.0453575
                                0.029281          0.0029775
[INPUT] 1    0    [1    /1   ]  0.804681             1
[INPUT] 1    0    [1    /1   ]  0.313254             1
[INPUT] 1    0    [1    /1   ]  0.105389             1
[INPUT] 2    0    [1    /1   ]  2.01376              1
[INPUT] 2    0    [1    /1   ]  0.684884             1
[INPUT] 2    0    [1    /1   ]  0.240171             1
[INPUT] 3    0    [1    /1   ]  0.457302             1
[INPUT] 3    0    [1    /1   ]  1.32493              1
[INPUT] 4    0    [1    /1   ]  1.03418              1
[INPUT] H
[INPUT] 0    0    [8    /1   ]  23.843185         0.0041149
                                10.212443         0.0104644
                                4.374164          0.0280111
                                1.873529          0.0758862
                                0.802465          0.1821062
                                0.343709          0.3485214
                                0.147217          0.3782313
                                0.063055          0.1164241
[INPUT] 0    0    [1    /1   ]  0.081856             1
[INPUT] 0    0    [1    /1   ]  0.233254             1
[INPUT] 0    0    [1    /1   ]  0.664673             1
[INPUT] 1    0    [1    /1   ]  0.284469             1
[INPUT] 1    0    [1    /1   ]  0.847159             1
[INPUT] 1    0    [1    /1   ]  2.522868             1
[INPUT] 2    0    [1    /1   ]  0.665279             1
[INPUT] 2    0    [1    /1   ]  2.048739             1
[INPUT] 3    0    [1    /1   ]  1.42146              1

nuclear repulsion = 26.6573409119688
number of shells = 88
number of NR pGTOs = 394
number of NR cGTOs = 288
basis = ccecp-ccpvqz
ecp = ccecp
CPU time:         4.17


******** <class 'pyscf.scf.hf.RHF'> ********
method = RHF
initial guess = minao
damping factor = 0
level_shift factor = 0
DIIS = <class 'pyscf.scf.diis.CDIIS'>
diis_start_cycle = 1
diis_space = 8
SCF conv_tol = 1e-09
SCF conv_tol_grad = None
SCF max_cycles = 200
direct_scf = True
direct_scf_tol = 1e-13
chkfile to save SCF result = pyscf.chk
max_memory 507515 MB (current use 106 MB)
Set gradient conv threshold to 3.16228e-05
E1 = -71.19786166999889  E_coul = 30.363818265857926
init E= -14.1767024921721
cond(S) = 103445.6002073276
    CPU time for initialize scf    361.57 sec, wall time      3.22 sec
  HOMO = -0.415404478813175  LUMO = 0.0684001554757331
  mo_energy =
[-1.48968426 -1.05215718 -0.59313182 -0.59313157 -0.46988257 -0.41540465
 -0.41540448  0.06840016  0.10671454  0.1369296   0.13692982  0.17196862
  0.1719687   0.25216859  0.26657747  0.27897795  0.27897806  0.30258752
  0.30258778  0.3919827   0.41356012  0.41356045  0.4290007   0.46338835
  0.47299665  0.4729969   0.53341061  0.5334111   0.57932321  0.62361587
  0.73247039  0.73247048  0.74505383  0.83795941  0.83845586  0.83845613
  0.83903924  0.86358709  0.86358759  0.92287371  0.92287376  0.9665667
  0.98196847  0.99360959  1.02268471  1.02268509  1.11364041  1.11364096
  1.12590216  1.1259031   1.14121018  1.14121027  1.16279825  1.16636996
  1.26033167  1.26033213  1.40298429  1.40298454  1.44208416  1.48489687
  1.5437305   1.54373088  1.70574558  1.81369157  1.90295903  1.90295956
  1.93983739  1.93983741  1.96280828  1.96320786  1.98452416  2.00020661
  2.00020705  2.07194328  2.09405662  2.09405689  2.18298275  2.18298371
  2.18667116  2.1866713   2.24514485  2.2499173   2.25517886  2.25517962
  2.2586796   2.35819958  2.35820229  2.40842408  2.48060345  2.48060529
  2.55729239  2.5572941   2.58551005  2.6173788   2.61737949  2.64635501
  2.6676186   2.66761875  2.74329505  2.74329625  2.75905409  2.83132804
  2.83132914  2.83634474  2.89133364  2.89133402  2.99312377  3.04118852
  3.1081285   3.10812947  3.12876368  3.16284072  3.18740765  3.18740946
  3.27464185  3.30882473  3.31499656  3.31499788  3.33120014  3.37163333
  3.37163515  3.41087802  3.41087849  3.56571375  3.59443433  3.59443471
  3.63628643  3.63628679  3.63971386  3.6716163   3.99976999  3.99977031
  4.0283249   4.02832603  4.06494851  4.10683247  4.11516215  4.12924921
  4.12925166  4.17432943  4.17433257  4.35249859  5.38091146  5.42148813
  5.42148954  5.44789525  5.44789654  5.47908824  5.47909033  5.5001609
  5.54966491  5.65165519  5.70472373  5.77541596  5.77541792  5.85644418
  5.97261314  5.97261424  5.97647845  5.97647932  6.11963391  6.11963441
  6.16587916  6.18691102  6.18691327  6.18722856  6.23314181  6.23314342
  6.2617494   6.28816295  6.28816364  6.29104858  6.40391221  6.40391479
  6.4122312   6.4755662   6.47556699  6.52986052  6.53246057  6.54860218
  6.59353234  6.5935326   6.65348743  6.65348896  6.70207973  6.71814909
  6.75627577  6.75628051  6.90426903  6.90426957  7.02930212  7.0293039
  7.03003589  7.12520786  7.21064194  7.210642    7.2997781   7.29977824
  7.39982204  7.56331251  7.65540676  7.68571731  7.68571858  7.73844044
  7.74401105  7.74401333  7.82351378  7.8235151   7.87129496  7.87915189
  7.8791544   7.89614748  7.94500983  7.97476157  7.97476195  7.98328809
  8.05633398  8.05633446  8.05931056  8.05931462  8.09844155  8.09844217
  8.16431878  8.16431883  8.16432395  8.19148422  8.25621688  8.33642366
  8.33642503  8.42844423  8.520173    8.52017698  8.57194957  8.57195027
  8.66741595  8.68996368  8.6899665   8.72065272  8.7572283   8.78095942
  8.78096102  8.78988402  8.78988594  8.79131365  8.91681824  8.93324104
  8.93324136  9.01745772  9.01745979  9.26402458  9.28754763  9.31156372
  9.31156807  9.38169596  9.45044525  9.4504499   9.61280688  9.61281169
  9.61571414  9.69795565  9.69795908  9.7518265  10.28739975 10.33802364
 10.33802847 10.41599842 10.4159994  10.46663729 10.5637502  10.56375347
 10.64866558 10.64866597 10.69122766 10.69282836 10.75048356 10.75048705
 10.80732254 10.82141762 10.82141908 11.04115262 11.18289378 11.24684677
 12.79880495 12.79881506 12.80568326 12.80569386 20.61150972 20.70306776]
E1 = -73.41587052005022  E_coul = 32.2519894860006
cycle= 1 E= -14.5065401220808  delta_E= -0.33  |g|= 0.262  |ddm|=  4.7
    CPU time for cycle= 1     42.14 sec, wall time      0.36 sec
  HOMO = -0.474968209252546  LUMO = 0.107709218732148
  mo_energy =
[-1.01385467 -0.84086283 -0.58686675 -0.58686665 -0.48610574 -0.4749683
 -0.47496821  0.10770922  0.14033162  0.16116594  0.16116612  0.1984773
  0.19847738  0.29432237  0.29994941  0.29994951  0.30433209  0.34434884
  0.34434908  0.46120381  0.48873357  0.488734    0.51305487  0.56205362
  0.56205385  0.57576944  0.57577     0.57885787  0.61910942  0.67299755
  0.77149714  0.77267342  0.77267358  0.86059173  0.87674003  0.87674031
  0.89065839  0.91074704  0.91074754  0.96876489  0.96876496  1.013384
  1.01602763  1.05777808  1.05777842  1.07962435  1.14906163  1.14906257
  1.15783228  1.15783286  1.19338586  1.1933859   1.21787638  1.22786251
  1.32490614  1.32490667  1.46326541  1.46326577  1.51097584  1.54843555
  1.60262236  1.6026227   1.78949296  1.88961357  2.00919137  2.00919186
  2.03424229  2.03424229  2.04933608  2.05653317  2.07694543  2.0771373
  2.07713776  2.16749846  2.16749889  2.17142177  2.27241993  2.2724208
  2.28488598  2.28488609  2.29803312  2.33295649  2.33319623  2.33319695
  2.34310161  2.41237952  2.41238234  2.45433678  2.54795499  2.54795673
  2.62042974  2.62043125  2.653353    2.66167545  2.66167613  2.72594482
  2.72642336  2.72642361  2.79162344  2.79162465  2.80697418  2.88587994
  2.88654735  2.88654825  2.94794699  2.9479476   3.0868778   3.10124352
  3.17860026  3.18812774  3.18812867  3.21749829  3.27129177  3.27129343
  3.34779483  3.37556354  3.3755648   3.38368163  3.40181017  3.4397147
  3.43971665  3.48969319  3.48969395  3.66997281  3.66997336  3.67636013
  3.72221921  3.73265331  3.73265377  3.77661817  4.0930673   4.09306771
  4.13760782  4.14785863  4.14785947  4.20791098  4.23785175  4.23785397
  4.24412227  4.27328356  4.27328671  4.45437938  5.52824689  5.57675566
  5.57675711  5.60992559  5.60992702  5.62110412  5.6211063   5.66484139
  5.69314879  5.80718444  5.8854762   5.90789486  5.907897    6.00379218
  6.11071464  6.110716    6.12553969  6.12554086  6.25562301  6.25562345
  6.2875663   6.28756897  6.31518937  6.33353413  6.34179894  6.3488678
  6.34886929  6.37124226  6.40378007  6.40378086  6.50506135  6.5050637
  6.5476525   6.58807355  6.58807369  6.62999303  6.65925443  6.66374696
  6.70625562  6.70625564  6.77583887  6.77584092  6.83030735  6.85858634
  6.89443871  6.89444365  7.03568049  7.035681    7.15604659  7.15674017
  7.15674242  7.22184094  7.3592761   7.3592763   7.45416484  7.45416502
  7.53723526  7.68995474  7.76114565  7.78041853  7.78041953  7.82194806
  7.83143767  7.83143925  7.90870113  7.90870247  7.95658116  7.96579496
  7.97313205  7.97313461  8.05564623  8.05564686  8.076477    8.10884231
  8.125758    8.12575835  8.15727663  8.15728123  8.17434404  8.17434498
  8.23755693  8.25758667  8.28129356  8.2812941   8.32353023  8.41548704
  8.41548881  8.55333464  8.58978317  8.58978709  8.66662181  8.66662183
  8.76082799  8.80166852  8.81500078  8.81500372  8.81779949  8.85345284
  8.85345458  8.86872401  8.94336027  8.94336273  9.03250851  9.032509
  9.0398937   9.15382425  9.15382679  9.3531779   9.40150353  9.4096073
  9.40961132  9.51560372  9.58274425  9.58274904  9.71855261  9.71855695
  9.81073194  9.81163046  9.81163429  9.8513424  10.3993338  10.45503708
 10.45504254 10.5267919  10.52679348 10.58955518 10.68949255 10.68949635
 10.78157908 10.78157934 10.8214401  10.83475947 10.88964255 10.88964645
 10.93897661 10.95003309 10.95003502 11.1764586  11.32130638 11.38898144
 12.94833853 12.94834901 12.95628645 12.95629743 20.86246631 20.95540858]
E1 = -73.1391591744311  E_coul = 31.956923756171243
cycle= 2 E= -14.524894506291  delta_E= -0.0184  |g|= 0.0712  |ddm|= 0.447
    CPU time for cycle= 2    124.65 sec, wall time      1.04 sec
  HOMO = -0.494026427965965  LUMO = 0.105768896172288
  mo_energy =
[-1.03970309 -0.85591585 -0.6067232  -0.60672314 -0.52154797 -0.49402647
 -0.49402643  0.1057689   0.1402644   0.1590774   0.15907756  0.19639973
  0.19639979  0.29058863  0.29750143  0.29750153  0.30228556  0.34012498
  0.34012523  0.45531786  0.47869761  0.47869802  0.50892863  0.55192706
  0.55192726  0.56110906  0.57107677  0.57107731  0.61376356  0.66937214
  0.76840624  0.76840637  0.76903117  0.85963258  0.87083017  0.87083043
  0.88309899  0.9014557   0.9014562   0.96320966  0.96320972  1.01193226
  1.01347011  1.05479607  1.0547964   1.05960326  1.14604875  1.14604967
  1.15120004  1.15120063  1.18392723  1.18392726  1.21268261  1.22246683
  1.31644589  1.31644638  1.45517211  1.45517242  1.50250283  1.54420897
  1.59547732  1.5954777   1.77101041  1.87318586  1.98645916  1.98645968
  2.01513767  2.01513771  2.04037662  2.04147739  2.0574703   2.06416602
  2.06416647  2.15129552  2.16073877  2.16073916  2.25742651  2.25742746
  2.2693041   2.26930421  2.2990169   2.31777869  2.32181435  2.32181509
  2.33093688  2.40781218  2.40781497  2.45357594  2.53960213  2.5396039
  2.61502059  2.61502217  2.64682586  2.65953063  2.65953134  2.71730366
  2.72109832  2.72109852  2.78936254  2.78936374  2.80543985  2.88156153
  2.88156252  2.88510165  2.94339374  2.94339425  3.07986915  3.0838887
  3.17580271  3.17580368  3.17596017  3.212425    3.26148781  3.26148951
  3.33864921  3.36883999  3.36884124  3.3709396   3.39593225  3.43402592
  3.43402786  3.47754018  3.47754086  3.65514474  3.66027151  3.66027199
  3.71662797  3.72084097  3.7208414   3.76257872  4.08028995  4.08029032
  4.12738056  4.12738151  4.1288362   4.19214353  4.21945971  4.21946205
  4.22281944  4.25849496  4.25849814  4.4385859   5.49748407  5.54143446
  5.54143593  5.57790178  5.57790317  5.59952524  5.59952742  5.63067192
  5.66662312  5.77602611  5.84907505  5.88783514  5.88783719  5.96981378
  6.09268592  6.09268712  6.09909578  6.09909689  6.23284064  6.2328411
  6.2806545   6.28065709  6.28309881  6.31648018  6.33366735  6.33661184
  6.33661344  6.37080217  6.38841208  6.38841285  6.49582775  6.49583023
  6.53009692  6.57210706  6.57210724  6.62333928  6.64662788  6.65198992
  6.69247024  6.69247032  6.75736906  6.75737091  6.81231348  6.83432135
  6.8714061   6.87141099  7.0151722   7.01517269  7.13974915  7.13975126
  7.14037585  7.21102967  7.33469867  7.33469879  7.42440993  7.42441011
  7.51735938  7.67689798  7.74645594  7.7765235   7.77652453  7.81917427
  7.82717868  7.82718042  7.90734532  7.90734663  7.95966471  7.96254126
  7.96924843  7.96925093  8.05155238  8.0515529   8.06097701  8.09446002
  8.12579901  8.12579938  8.14908986  8.14909439  8.17127671  8.17127757
  8.2394708   8.26122757  8.26440385  8.26440429  8.32445163  8.41272164
  8.41272328  8.54077204  8.59116225  8.59116612  8.66586729  8.66586745
  8.75878799  8.80426202  8.80664715  8.80665012  8.82276048  8.8570448
  8.8570465   8.86762769  8.92149499  8.92149731  9.02378095  9.02746014
  9.02746066  9.13629379  9.13629619  9.35576669  9.39317227  9.40962304
  9.4096272   9.50441471  9.56700814  9.56701288  9.71440227  9.71440683
  9.76799261  9.80513113  9.80513479  9.85383751 10.39246774 10.44668017
 10.44668549 10.52045425 10.5204557  10.57708184 10.67814926 10.67815296
 10.77173944 10.77173955 10.8158684  10.81837936 10.87579836 10.87580216
 10.93423449 10.93782424 10.93782604 11.16243941 11.3067204  11.37261348
 12.93263735 12.93264777 12.94014458 12.94015549 20.80212009 20.89428906]
E1 = -73.31715615414531  E_coul = 32.133318398892115
cycle= 3 E= -14.5264968432844  delta_E= -0.0016  |g|= 0.0286  |ddm|= 0.155
    CPU time for cycle= 3     71.60 sec, wall time      0.59 sec
  HOMO = -0.486539311687869  LUMO = 0.107585012689
  mo_energy =
[-1.02612668 -0.84611469 -0.59756634 -0.59756628 -0.51003603 -0.48653936
 -0.48653931  0.10758501  0.14164591  0.16062809  0.16062825  0.19820024
  0.1982003   0.29241687  0.29942861  0.29942871  0.30493916  0.34323286
  0.34323311  0.4594914   0.48504234  0.48504274  0.51320232  0.55839621
  0.55839641  0.57049652  0.57521704  0.57521758  0.61750439  0.67280287
  0.7716445   0.77179747  0.7717976   0.86183629  0.87450035  0.87450061
  0.88684987  0.90591618  0.9059167   0.966892    0.96689207  1.0139551
  1.01596224  1.0576682   1.05766852  1.0680943   1.14823675  1.14823768
  1.15507439  1.15507496  1.18899945  1.18899948  1.2169134   1.22661583
  1.32166533  1.32166583  1.46047692  1.46047723  1.5082752   1.54907294
  1.60041349  1.60041386  1.77918398  1.8805476   1.99606629  1.99606682
  2.02382604  2.02382608  2.04728046  2.04751672  2.06649151  2.07084722
  2.07084768  2.15970125  2.16631039  2.16631078  2.26536995  2.26537089
  2.27733968  2.27733978  2.30280089  2.32525321  2.3287123   2.32871303
  2.33747814  2.41237599  2.41237877  2.4572769   2.54574339  2.54574514
  2.62058886  2.62059041  2.65258898  2.66395241  2.66395313  2.7235869
  2.72644814  2.72644834  2.79337888  2.79338008  2.8093277   2.88650875
  2.88650971  2.88880829  2.94821991  2.94822043  3.08828735  3.08986424
  3.18046185  3.18265811  3.18265909  3.21704028  3.26818068  3.26818238
  3.34511714  3.37418434  3.37418559  3.37797005  3.4019912   3.43988518
  3.43988712  3.48488619  3.48488688  3.66535194  3.66678759  3.66678808
  3.72337363  3.72923524  3.72923569  3.77112192  4.08812558  4.08812595
  4.13532014  4.137885    4.13788591  4.20128461  4.22921632  4.22921862
  4.23319275  4.26714706  4.26715023  4.44779684  5.51097383  5.55628366
  5.55628514  5.59263407  5.59263546  5.6106687   5.61067089  5.64535851
  5.67932721  5.78946897  5.86502403  5.89870067  5.89870275  5.98380942
  6.1034482   6.10344944  6.11126044  6.11126156  6.24462391  6.24462437
  6.28931162  6.28931421  6.29664595  6.32828067  6.33938198  6.34674055
  6.34674211  6.37677676  6.39837923  6.39838001  6.50423758  6.50424004
  6.54107588  6.5820879   6.582088    6.63121424  6.65652155  6.66165029
  6.70219605  6.70219611  6.76795787  6.76795977  6.82353396  6.84664938
  6.88391053  6.88391543  7.0266534   7.02665389  7.15103945  7.15104159
  7.15119459  7.21978739  7.34802706  7.34802719  7.4384817   7.43848187
  7.52938714  7.68685089  7.7562765   7.78460336  7.78460438  7.82718611
  7.83482581  7.83482751  7.9148421   7.91484343  7.96792295  7.96846799
  7.97742994  7.97743243  8.05941591  8.05941645  8.07219796  8.10532839
  8.13256703  8.13256741  8.15775676  8.15776132  8.17880795  8.17880885
  8.24641356  8.26750441  8.2754456   8.27544606  8.33100603  8.4201122
  8.42011388  8.55157047  8.59749253  8.5974964   8.67394955  8.67394969
  8.76707503  8.81154938  8.81704683  8.81704978  8.82847246  8.86379102
  8.86379271  8.87483377  8.93481621  8.93481856  9.03511759  9.03605007
  9.03605061  9.1477715   9.14777393  9.36338875  9.40337666  9.41810053
  9.41810465  9.51577463  9.57862666  9.57863139  9.72369975  9.72370427
  9.78604512  9.81487831  9.814882    9.8621685  10.40209957 10.45682855
 10.45683392 10.52993972 10.52994121 10.58815791 10.68916897 10.68917268
 10.78303832 10.78303846 10.82709038 10.83037272 10.88766338 10.8876672
 10.94523292 10.9486536  10.94865543 11.1738572  11.31889518 11.3851946
 12.94564609 12.94565651 12.95324385 12.95325477 20.82505757 20.91748462]
E1 = -73.26241210992067  E_coul = 32.07832528303429
cycle= 4 E= -14.5267459149176  delta_E= -0.000249  |g|= 0.00268  |ddm|= 0.0482
    CPU time for cycle= 4    102.29 sec, wall time      0.92 sec
  HOMO = -0.486944064312798  LUMO = 0.107587949612226
  mo_energy =
[-1.02633982 -0.84633862 -0.597791   -0.59779094 -0.51074911 -0.48694411
 -0.48694406  0.10758795  0.1416347   0.16065619  0.16065635  0.19823539
  0.19823545  0.29222688  0.29937254  0.29937264  0.30487358  0.34316987
  0.34317013  0.45934167  0.48493309  0.48493349  0.51305133  0.5582817
  0.55828191  0.57013862  0.57515648  0.57515703  0.61740506  0.67268164
  0.77159959  0.77170259  0.77170272  0.86181008  0.87443883  0.87443909
  0.88656895  0.90577857  0.90577908  0.96675899  0.96675906  1.01385837
  1.01585204  1.05759352  1.05759384  1.06769556  1.1482024   1.14820333
  1.15503103  1.1550316   1.18887423  1.18887426  1.21676226  1.22639998
  1.32155574  1.32155623  1.46033141  1.46033172  1.50812227  1.54891618
  1.60026927  1.60026964  1.77900656  1.88034468  1.99578793  1.99578846
  2.023595    2.02359504  2.04709595  2.04711584  2.06605883  2.07062094
  2.0706214   2.15934008  2.16602818  2.16602857  2.26511348  2.26511441
  2.27697951  2.27697962  2.30270689  2.32497451  2.32853839  2.32853912
  2.33713666  2.41225929  2.41226207  2.45718616  2.54563669  2.54563844
  2.62049485  2.62049641  2.65247926  2.66397516  2.66397589  2.72336554
  2.72638196  2.72638216  2.79329256  2.79329376  2.80922272  2.88642368
  2.88642465  2.88868885  2.94811819  2.94811872  3.08828346  3.08967191
  3.18040673  3.18244124  3.18244222  3.21693296  3.2678966   3.2678983
  3.3449324   3.37405889  3.37406013  3.3778184   3.40184118  3.43974985
  3.43975179  3.48475974  3.48476042  3.66513186  3.66660456  3.66660504
  3.72317468  3.72901043  3.72901088  3.77079789  4.08787108  4.08787145
  4.13514979  4.13758451  4.13758542  4.2010683   4.22894122  4.22894353
  4.23274353  4.26688099  4.26688416  4.44758967  5.51055495  5.5559947
  5.55599618  5.59229924  5.59230063  5.610095    5.61009718  5.64488639
  5.67888396  5.78894929  5.86459871  5.89823024  5.89823231  5.98343409
  6.10301864  6.10301988  6.11066157  6.1106627   6.2442592   6.24425967
  6.28915671  6.28915931  6.29617804  6.32763268  6.33925851  6.34648481
  6.34648637  6.37661     6.39807415  6.39807493  6.50399543  6.50399788
  6.54058147  6.58183794  6.58183804  6.63096908  6.65605322  6.66139175
  6.70190181  6.70190188  6.76761616  6.76761806  6.82322642  6.84632233
  6.88360793  6.88361283  7.0263235   7.02632399  7.15074178  7.15074392
  7.15087173  7.21965086  7.34769348  7.3476936   7.43809604  7.43809621
  7.52910839  7.68649781  7.75611397  7.78446289  7.78446391  7.82718468
  7.83471307  7.83471479  7.9147934   7.91479473  7.96777405  7.96855887
  7.97730852  7.97731102  8.05940533  8.05940586  8.07190036  8.10503948
  8.13265052  8.1326509   8.15762644  8.157631    8.17876646  8.17876736
  8.2464552   8.26754104  8.27521512  8.27521559  8.33105945  8.42006698
  8.42006866  8.55130897  8.59749248  8.59749635  8.67381838  8.67381853
  8.76702736  8.81152686  8.81675236  8.81675531  8.82853471  8.86381099
  8.86381269  8.87480034  8.93442059  8.93442294  9.03491649  9.03585583
  9.03585637  9.14741404  9.14741647  9.3632922   9.40320358  9.41798387
  9.417988    9.51552123  9.57833362  9.57833836  9.72353824  9.72354276
  9.78565575  9.81469164  9.81469533  9.86203475 10.40189768 10.4565937
 10.45659907 10.52973352 10.529735   10.58795582 10.68892408 10.68892779
 10.78273552 10.78273566 10.82686841 10.82995765 10.88735399 10.8873578
 10.94497373 10.94834674 10.94834857 11.17347062 11.31859322 11.38489276
 12.94528349 12.94529391 12.95287511 12.95288603 20.82424839 20.91669399]
E1 = -73.26186325046176  E_coul = 32.077771939148015
cycle= 5 E= -14.5267503993449  delta_E= -4.48e-06  |g|= 0.000412  |ddm|= 0.0107
    CPU time for cycle= 5    110.85 sec, wall time      0.99 sec
  HOMO = -0.486932472044992  LUMO = 0.10758347946688
  mo_energy =
[-1.02638292 -0.84634809 -0.59778221 -0.59778215 -0.510807   -0.48693252
 -0.48693247  0.10758348  0.1416396   0.16065841  0.16065857  0.19823959
  0.19823965  0.29221175  0.2993676   0.2993677   0.30489308  0.34316846
  0.34316871  0.45933303  0.48494068  0.48494108  0.51305296  0.55829688
  0.55829709  0.57014192  0.57517004  0.57517058  0.61738904  0.67268214
  0.77158687  0.77170037  0.77170049  0.86180638  0.8744337   0.87443396
  0.88657734  0.90577383  0.90577434  0.96676528  0.96676535  1.01386608
  1.01585603  1.05759736  1.05759768  1.06768442  1.14819644  1.14819737
  1.15503155  1.15503212  1.18887541  1.18887544  1.21677317  1.22641632
  1.32156791  1.32156841  1.46033395  1.46033426  1.50812594  1.54892939
  1.6002689   1.60026927  1.77896866  1.88029783  1.99577854  1.99577906
  2.02357058  2.02357062  2.04708851  2.04711864  2.06607941  2.07061864
  2.0706191   2.15932242  2.16604855  2.16604894  2.26511087  2.2651118
  2.27698936  2.27698947  2.3027288   2.32496265  2.32853484  2.32853557
  2.33713854  2.41226176  2.41226454  2.45719648  2.54563793  2.54563968
  2.62050568  2.62050724  2.65249461  2.66397987  2.6639806   2.72339612
  2.7263963   2.7263965   2.79330887  2.79331007  2.80924534  2.88642803
  2.88642899  2.88872388  2.94812239  2.94812291  3.08828522  3.08965634
  3.18042086  3.18244082  3.1824418   3.2169484   3.26791478  3.26791648
  3.34492458  3.3740613   3.37406254  3.37781527  3.40185908  3.4397632
  3.43976514  3.48476585  3.48476654  3.66512581  3.66662471  3.66662519
  3.7232024   3.72902187  3.72902232  3.7708298   4.08788289  4.08788327
  4.13513532  4.1375947   4.13759561  4.20107496  4.22894176  4.22894407
  4.23278436  4.26688901  4.26689217  4.44758819  5.51052218  5.55595715
  5.55595863  5.59230205  5.59230344  5.61012394  5.61012612  5.64488608
  5.67886951  5.78895461  5.86463938  5.89824077  5.89824284  5.98339202
  6.10305286  6.1030541   6.11070467  6.11070579  6.24427034  6.24427081
  6.28918779  6.28919039  6.29615634  6.32768488  6.33928664  6.34652388
  6.34652544  6.37664487  6.39809084  6.39809161  6.50401594  6.5040184
  6.54061361  6.58184153  6.58184163  6.63101431  6.65610375  6.6614257
  6.70192258  6.70192265  6.76764344  6.76764533  6.82326155  6.84634377
  6.88361993  6.88362483  7.0263234   7.02632389  7.15076219  7.15076433
  7.15089582  7.21965223  7.347715    7.34771513  7.43811788  7.43811806
  7.52915642  7.68656075  7.75610551  7.78451469  7.78451571  7.82722561
  7.83475322  7.83475494  7.91483665  7.91483798  7.96781314  7.96860724
  7.97735503  7.97735753  8.05943411  8.05943465  8.07193325  8.10509276
  8.13268999  8.13269037  8.15766422  8.15766878  8.17880812  8.17880902
  8.24650363  8.26758048  8.27524908  8.27524954  8.33110011  8.42011051
  8.42011219  8.55133927  8.59753305  8.59753691  8.67387124  8.67387138
  8.76707149  8.81156759  8.81680561  8.81680856  8.82858279  8.86385248
  8.86385418  8.87483508  8.93445704  8.93445939  9.0349618   9.03590432
  9.03590486  9.14745547  9.1474579   9.36334436  9.40324209  9.41803194
  9.41803608  9.51557427  9.57836827  9.578373    9.72357451  9.72357903
  9.78569477  9.81473255  9.81473623  9.86208769 10.40195084 10.45663762
 10.45664299 10.52978126 10.52978275 10.58799484 10.68897374 10.68897746
 10.78279456 10.7827947  10.8269386  10.8299971  10.88740848 10.8874123
 10.94504481 10.9484028  10.94840463 11.1735144  11.31864067 11.38494152
 12.94535095 12.94536137 12.95294172 12.95295263 20.82430943 20.91675174]
E1 = -73.26173189550603  E_coul = 32.07764046791503
cycle= 6 E= -14.5267505156222  delta_E= -1.16e-07  |g|= 9.2e-05  |ddm|= 0.00217
    CPU time for cycle= 6     90.50 sec, wall time      0.76 sec
  HOMO = -0.486954460992943  LUMO = 0.107578003392081
  mo_energy =
[-1.02641908 -0.84638515 -0.59780367 -0.59780361 -0.51084476 -0.48695451
 -0.48695446  0.107578    0.14163257  0.16065561  0.16065576  0.19823717
  0.19823723  0.29220028  0.29936158  0.29936168  0.30488233  0.34316277
  0.34316302  0.4593188   0.48492756  0.48492796  0.51303834  0.55828347
  0.55828368  0.5701129   0.57515998  0.57516052  0.61738109  0.67267191
  0.77158105  0.77169052  0.77169065  0.86180107  0.87442612  0.87442637
  0.88655829  0.90576361  0.90576413  0.96675289  0.96675296  1.01385699
  1.0158455   1.05758799  1.05758831  1.06765616  1.14819067  1.1481916
  1.15502286  1.15502343  1.18886352  1.18886355  1.21675918  1.22639916
  1.3215558   1.32155629  1.4603199   1.46032021  1.50811247  1.54891654
  1.60025529  1.60025566  1.77895138  1.8802847   1.99575451  1.99575504
  2.02355117  2.0235512   2.04707562  2.04709004  2.06604677  2.07060099
  2.07060145  2.15929615  2.1660279   2.16602829  2.26509042  2.26509136
  2.27696268  2.27696278  2.30271627  2.32494168  2.32851804  2.32851877
  2.33711456  2.41224913  2.41225191  2.45718437  2.54562405  2.5456258
  2.62049282  2.62049438  2.65247971  2.66397322  2.66397394  2.72337444
  2.72638412  2.72638431  2.79329643  2.79329763  2.80923145  2.88641529
  2.88641626  2.88870886  2.94810985  2.94811037  3.08827693  3.08963335
  3.18041018  3.18242073  3.18242171  3.21693407  3.26789156  3.26789326
  3.34490944  3.37404729  3.37404854  3.37779819  3.4018428   3.43974891
  3.43975085  3.48474902  3.48474971  3.66510161  3.66660475  3.66660523
  3.72318369  3.72900118  3.72900163  3.7708027   4.0878605   4.08786087
  4.13512131  4.13756691  4.13756782  4.20105228  4.22891775  4.22892006
  4.23274706  4.26686594  4.26686911  4.44756683  5.51049115  5.55592595
  5.55592743  5.59226704  5.59226843  5.61008662  5.61008881  5.64484559
  5.67883796  5.78891364  5.8645932   5.89820839  5.89821046  5.98336082
  6.10301901  6.10302024  6.1106609   6.11066203  6.24423823  6.2442387
  6.28916711  6.2891697   6.29612136  6.32764015  6.33927095  6.34649704
  6.3464986   6.37662685  6.39806438  6.39806516  6.50399424  6.5039967
  6.54058047  6.58181752  6.58181763  6.63099016  6.65607126  6.66140076
  6.70189715  6.70189722  6.76761233  6.76761422  6.82323007  6.84631172
  6.88358921  6.88359411  7.02629586  7.02629635  7.15073497  7.15073711
  7.15086784  7.2196347   7.34768108  7.34768121  7.43807927  7.43807944
  7.52912351  7.68652847  7.75608662  7.78449485  7.78449587  7.82721082
  7.83473466  7.83473637  7.91482077  7.9148221   7.96779286  7.96859779
  7.9773363   7.9773388   8.0594194   8.05941994  8.07190573  8.10506187
  8.13267917  8.13267955  8.15764243  8.15764698  8.17879206  8.17879296
  8.24649143  8.26756967  8.27522097  8.27522143  8.33108846  8.42009367
  8.42009535  8.55131319  8.59751971  8.59752357  8.67385258  8.67385273
  8.76705424  8.81155497  8.81677851  8.81678146  8.82857283  8.86384158
  8.86384328  8.87482065  8.93442155  8.93442389  9.03493335  9.03588216
  9.0358827   9.14742261  9.14742503  9.36332891  9.40322142  9.41801588
  9.41802002  9.51554589  9.57834034  9.57834507  9.72355667  9.72356119
  9.78564602  9.8147115   9.81471519  9.86207137 10.40192686 10.45661323
 10.45661859 10.529758   10.52975949 10.58797066 10.68894855 10.68895226
 10.78276739 10.78276753 10.82691423 10.829965   10.88737789 10.88738171
 10.94501954 10.94837338 10.9483752  11.1734838  11.31861202 11.38490993
 12.9453164  12.94532682 12.95290683 12.95291775 20.82423041 20.91667304]
E1 = -73.26183858407292  E_coul = 32.07774715295802
cycle= 7 E= -14.5267505191461  delta_E= -3.52e-09  |g|= 6.67e-06  |ddm|= 0.000425
    CPU time for cycle= 7    109.07 sec, wall time      1.00 sec
  HOMO = -0.486954918291279  LUMO = 0.10757757228905
  mo_energy =
[-1.02642016 -0.8463855  -0.59780409 -0.59780403 -0.51084619 -0.48695496
 -0.48695492  0.10757757  0.14163223  0.16065533  0.16065549  0.19823691
  0.19823697  0.2922002   0.29936127  0.29936137  0.30488195  0.34316213
  0.34316239  0.45931823  0.48492676  0.48492715  0.51303768  0.55828278
  0.55828299  0.5701119   0.57515934  0.57515988  0.61738041  0.67267129
  0.77158059  0.77169001  0.77169013  0.86180065  0.87442555  0.87442581
  0.8865579   0.90576292  0.90576344  0.96675239  0.96675246  1.01385662
  1.0158451   1.05758748  1.0575878   1.06765504  1.14819026  1.14819119
  1.15502226  1.15502283  1.18886282  1.18886285  1.21675845  1.22639852
  1.32155507  1.32155556  1.46031906  1.46031937  1.50811158  1.54891573
  1.60025454  1.60025492  1.77895023  1.88028358  1.99575328  1.99575381
  2.02355     2.02355003  2.04707475  2.04708923  2.06604576  2.07060013
  2.07060059  2.15929508  2.1660273   2.16602768  2.2650894   2.26509034
  2.27696175  2.27696186  2.30271572  2.32494069  2.32851708  2.32851781
  2.33711374  2.41224847  2.41225125  2.4571838   2.54562318  2.54562493
  2.62049203  2.62049358  2.6524789   2.66397249  2.66397321  2.72337375
  2.72638339  2.72638359  2.79329586  2.79329706  2.8092309   2.88641455
  2.88641551  2.88870843  2.94810912  2.94810964  3.08827623  3.08963194
  3.18040949  3.18241983  3.18242081  3.21693346  3.26789079  3.26789249
  3.3449085   3.37404651  3.37404775  3.37779721  3.40184198  3.4397481
  3.43975004  3.48474799  3.48474868  3.66510032  3.66660391  3.66660439
  3.72318284  3.72900008  3.72900053  3.77080182  4.08785959  4.08785996
  4.13512032  4.13756568  4.13756659  4.20105101  4.22891645  4.22891876
  4.23274607  4.26686481  4.26686798  4.44756558  5.51048925  5.55592393
  5.55592541  5.59226529  5.59226668  5.61008556  5.61008774  5.64484389
  5.67883622  5.78891219  5.86459163  5.89820715  5.89820922  5.98335882
  6.10301794  6.10301917  6.1106599   6.11066102  6.24423678  6.24423725
  6.28916599  6.28916859  6.29611951  6.32763923  6.33927023  6.34649586
  6.34649742  6.37662617  6.39806315  6.39806392  6.50399319  6.50399565
  6.54057933  6.58181622  6.58181632  6.63098935  6.65607031  6.66139964
  6.70189598  6.70189605  6.76761112  6.76761301  6.82322893  6.8463104
  6.88358758  6.88359248  7.02629441  7.0262949   7.15073353  7.15073566
  7.15086654  7.21963346  7.34767948  7.34767961  7.43807765  7.43807783
  7.52912228  7.68652761  7.75608518  7.78449392  7.78449495  7.8272097
  7.83473371  7.83473542  7.91481978  7.91482112  7.96779184  7.96859689
  7.97733533  7.97733783  8.05941831  8.05941885  8.07190441  8.10506078
  8.13267821  8.13267859  8.15764138  8.15764594  8.17879108  8.17879198
  8.24649046  8.26756874  8.27521965  8.27522011  8.33108754  8.42009273
  8.42009441  8.55131177  8.59751882  8.59752268  8.67385163  8.67385177
  8.76705315  8.81155394  8.81677731  8.81678027  8.82857205  8.86384062
  8.86384231  8.87481962  8.93442004  8.93442239  9.03493205  9.03588119
  9.03588173  9.14742139  9.14742381  9.36332787  9.40322012  9.41801475
  9.41801889  9.51554458  9.57833895  9.57834369  9.72355542  9.72355994
  9.78564417  9.81471024  9.81471393  9.86207024 10.40192575 10.45661198
 10.45661734 10.52975683 10.52975831 10.58796934 10.68894728 10.688951
 10.78276607 10.78276621 10.82691286 10.82996359 10.88737647 10.88738029
 10.9450182  10.94837221 10.94837404 11.17348249 11.31861056 11.38490839
 12.94531497 12.94532539 12.95290539 12.95291631 20.82422838 20.91667094]
E1 = -73.26184219380973  E_coul = 32.077750762676295
cycle= 8 E= -14.5267505191646  delta_E= -1.85e-11  |g|= 9.21e-07  |ddm|= 3.77e-05
    CPU time for cycle= 8    103.39 sec, wall time      0.87 sec
  HOMO = -0.486954917190498  LUMO = 0.107577549056231
  mo_energy =
[-1.02642026 -0.84638564 -0.59780416 -0.5978041  -0.5108463  -0.48695496
 -0.48695492  0.10757755  0.14163222  0.16065532  0.16065548  0.19823691
  0.19823697  0.29220019  0.29936126  0.29936136  0.30488194  0.34316214
  0.34316239  0.45931821  0.48492676  0.48492716  0.5130377   0.55828279
  0.558283    0.57011188  0.57515932  0.57515986  0.61738043  0.67267129
  0.77158057  0.77168999  0.77169011  0.86180063  0.87442555  0.8744258
  0.88655789  0.90576292  0.90576344  0.96675238  0.96675245  1.01385662
  1.01584509  1.05758746  1.05758778  1.06765504  1.14819025  1.14819118
  1.15502225  1.15502282  1.18886281  1.18886284  1.21675846  1.22639852
  1.32155507  1.32155556  1.46031905  1.46031936  1.50811158  1.54891574
  1.60025453  1.6002549   1.77895018  1.88028355  1.99575327  1.99575379
  2.02354997  2.02355001  2.04707473  2.04708922  2.06604576  2.07060012
  2.07060058  2.15929506  2.1660273   2.16602769  2.26508938  2.26509032
  2.27696174  2.27696185  2.3027157   2.32494068  2.32851706  2.32851779
  2.33711374  2.41224846  2.41225124  2.45718378  2.54562316  2.5456249
  2.62049201  2.62049357  2.6524789   2.66397247  2.66397319  2.72337376
  2.72638339  2.72638359  2.79329586  2.79329705  2.80923089  2.88641453
  2.88641549  2.88870844  2.94810911  2.94810963  3.08827622  3.0896319
  3.18040948  3.18241981  3.18242079  3.21693345  3.26789078  3.26789248
  3.34490848  3.37404649  3.37404774  3.3777972   3.40184197  3.43974809
  3.43975003  3.48474797  3.48474866  3.66510029  3.66660391  3.66660439
  3.72318284  3.72900007  3.72900052  3.77080184  4.08785958  4.08785995
  4.1351203   4.13756567  4.13756659  4.201051    4.22891643  4.22891873
  4.23274608  4.26686479  4.26686796  4.44756557  5.5104892   5.55592386
  5.55592534  5.59226526  5.59226664  5.61008558  5.61008777  5.64484386
  5.67883618  5.78891218  5.86459162  5.89820715  5.89820922  5.98335875
  6.10301795  6.10301918  6.11065993  6.11066106  6.24423675  6.24423722
  6.28916597  6.28916857  6.29611946  6.32763928  6.33927022  6.34649585
  6.34649741  6.37662617  6.39806313  6.39806391  6.50399318  6.50399564
  6.54057935  6.58181619  6.5818163   6.63098935  6.65607034  6.66139963
  6.70189597  6.70189604  6.76761111  6.767613    6.82322894  6.8463104
  6.88358754  6.88359244  7.02629438  7.02629487  7.1507335   7.15073564
  7.15086653  7.21963343  7.34767946  7.34767958  7.43807763  7.4380778
  7.52912228  7.68652765  7.75608514  7.78449393  7.78449495  7.82720967
  7.8347337   7.83473541  7.91481977  7.9148211   7.96779183  7.96859687
  7.97733533  7.97733783  8.05941828  8.05941882  8.07190441  8.10506078
  8.13267819  8.13267857  8.15764137  8.15764593  8.17879107  8.17879197
  8.24649044  8.26756872  8.27521964  8.2752201   8.33108753  8.42009271
  8.42009439  8.55131175  8.5975188   8.59752266  8.67385162  8.67385177
  8.76705312  8.81155391  8.81677731  8.81678026  8.82857204  8.8638406
  8.86384229  8.8748196   8.93442003  8.93442238  9.03493203  9.03588119
  9.03588173  9.14742138  9.14742381  9.36332785  9.40322011  9.41801474
  9.41801887  9.51554456  9.57833894  9.57834368  9.7235554   9.72355993
  9.78564415  9.81471022  9.8147139   9.86207022 10.40192574 10.45661196
 10.45661733 10.52975681 10.52975829 10.58796934 10.68894729 10.688951
 10.78276607 10.78276621 10.82691285 10.82996359 10.88737646 10.88738027
 10.9450182  10.94837222 10.94837405 11.17348249 11.31861056 11.38490837
 12.94531497 12.94532539 12.95290539 12.95291631 20.82422841 20.91667096]
E1 = -73.26184251554213  E_coul = 32.07775108440816
Extra cycle  E= -14.5267505191651  delta_E= -5.33e-13  |g|= 3.09e-07  |ddm|= 3.87e-06
    CPU time for scf_cycle   1205.05 sec, wall time     10.48 sec
    CPU time for SCF   1205.51 sec, wall time     10.48 sec
converged SCF energy = -14.5267505191651
