#INFO: **** input file is /home/nkousuke/lustre/toBeSync/turboRVB/05turbo-genius-development/turbogenius_paper/04data/sanity_checks/03pyscf_HF_turbo_VMC_via_trexio/00open_boundary/results/Li/pyscf-HF-workflow/run.py ****

from pyscf_wrapper import Pyscf_wrapper

# input variables
pyscf_chkfile="pyscf.chk"
structure_file="Li.xyz"

# input variables
omp_num_threads=128
charge=0
spin=1
basis="ccecp-ccpv5z"
ecp="ccecp"
scf_method="HF"
dft_xc="NA"
solver_newton=False
MP2_flag=False
CCSD_flag=False
pyscf_output="out.pyscf"
twist_average=False
exp_to_discard=0.0
kpt=[0.0, 0.0, 0.0]
kpt_grid=[1, 1, 1]
smearing_method="fermi"
smearing_sigma=0.0

pyscf_calc=Pyscf_wrapper(
                        structure_file=structure_file,
                        chkfile=pyscf_chkfile,
                        )

pyscf_calc.run_pyscf(
                  omp_num_threads=omp_num_threads,
                  charge=charge,
                  spin=spin,
                  basis=basis,
                  ecp=ecp,
                  scf_method=scf_method,
                  dft_xc=dft_xc,
                  solver_newton=solver_newton,
                  MP2_flag=MP2_flag,
                  CCSD_flag=CCSD_flag,
                  pyscf_output=pyscf_output,
                  twist_average=twist_average,
                  exp_to_discard=exp_to_discard,
                  kpt=kpt,
                  kpt_grid=kpt_grid,
                  smearing_method=smearing_method,
                  smearing_sigma=smearing_sigma
                  )
                #INFO: ******************** input file end ********************


System: uname_result(system='Linux', node='spcc-105', release='5.4.0-66-generic', version='#74-Ubuntu SMP Wed Jan 27 22:54:38 UTC 2021', machine='x86_64', processor='x86_64')  Threads 128
Python 3.7.3 (default, Mar 27 2019, 22:11:17) 
[GCC 7.3.0]
numpy 1.20.1  scipy 1.7.3
Date: Mon Dec 19 18:08:27 2022
PySCF version 2.0.1
PySCF path  /home/nkousuke/application/anaconda3/lib/python3.7/site-packages/pyscf

[CONFIG] conf_file /home/nkousuke/.pyscf_conf.py
[INPUT] verbose = 5
[INPUT] max_memory = 507579.29296875 
[INPUT] num. atoms = 1
[INPUT] num. electrons = 1
[INPUT] charge = 0
[INPUT] spin (= nelec alpha-beta = 2S) = 1
[INPUT] symmetry False subgroup None
[INPUT] Mole.unit = A
[INPUT]  1 Li     0.000000000000   0.000000000000   0.000000000000 AA    0.000000000000   0.000000000000   0.000000000000 Bohr
[INPUT] ---------------- BASIS SET ---------------- 
[INPUT] l, kappa, [nprim/nctr], expnt,             c_1 c_2 ...
[INPUT] Li
[INPUT] 0    0    [10   /1   ]  16.001258         4.34e-05
                                7.583113          -0.0007531
                                3.593693          -0.0002519
                                1.703077          0.0169674
                                0.807101          -0.0909921
                                0.382491          -0.0893155
                                0.181265          0.0294155
                                0.085903          0.364402
                                0.04071           0.5504973
                                0.019293          0.1744412
[INPUT] 0    0    [1    /1   ]  1.004881             1
[INPUT] 0    0    [1    /1   ]  0.670681             1
[INPUT] 0    0    [1    /1   ]  0.104917             1
[INPUT] 0    0    [1    /1   ]  0.02501              1
[INPUT] 1    0    [10   /1   ]  7.004881          -0.0005306
                                3.451199          0.0012949
                                1.700353          0.0070115
                                0.837738          0.0171604
                                0.412741          0.036724
                                0.203351          0.0965042
                                0.100188          0.2211013
                                0.049361          0.3835358
                                0.02432           0.3350564
                                0.011982          0.0781453
[INPUT] 1    0    [1    /1   ]  0.806184             1
[INPUT] 1    0    [1    /1   ]  0.404355             1
[INPUT] 1    0    [1    /1   ]  0.13847              1
[INPUT] 1    0    [1    /1   ]  0.081041             1
[INPUT] 2    0    [1    /1   ]  0.98635              1
[INPUT] 2    0    [1    /1   ]  0.835758             1
[INPUT] 2    0    [1    /1   ]  0.161784             1
[INPUT] 2    0    [1    /1   ]  0.065574             1
[INPUT] 3    0    [1    /1   ]  0.856748             1
[INPUT] 3    0    [1    /1   ]  0.420698             1
[INPUT] 3    0    [1    /1   ]  0.152988             1
[INPUT] 4    0    [1    /1   ]  0.457496             1
[INPUT] 4    0    [1    /1   ]  0.254479             1

nuclear repulsion = 0
number of shells = 19
number of NR pGTOs = 115
number of NR cGTOs = 79
basis = ccecp-ccpv5z
ecp = ccecp
CPU time:         5.02


******** <class 'pyscf.scf.rohf.ROHF'> ********
method = ROHF-RHF
initial guess = minao
damping factor = 0
level_shift factor = 0
DIIS = <class 'pyscf.scf.diis.CDIIS'>
diis_start_cycle = 1
diis_space = 8
SCF conv_tol = 1e-09
SCF conv_tol_grad = None
SCF max_cycles = 200
direct_scf = True
direct_scf_tol = 1e-13
chkfile to save SCF result = pyscf.chk
max_memory 507579 MB (current use 106 MB)
num. doubly occ = 0  num. singly occ = 1
Set gradient conv threshold to 3.16228e-05
E1 = -0.1968527903495578  Ecoul = 0.05857972869636557
init E= -0.138273061653192
cond(S) = 1330.4951626118523
    CPU time for initialize scf     84.12 sec, wall time      0.89 sec
E1 = -0.19471636313094492  Ecoul = -7.840136959785821e-18
cycle= 1 E= -0.194716363130945  delta_E= -0.0564  |g|= 0.0181  |ddm|= 0.65
    CPU time for cycle= 1    136.36 sec, wall time      1.09 sec
E1 = -0.19669758377310834  Ecoul = -2.3977649852197158e-17
cycle= 2 E= -0.196697583773108  delta_E= -0.00198  |g|= 0.00559  |ddm|= 0.676
    CPU time for cycle= 2     91.27 sec, wall time      0.72 sec
E1 = -0.1968493984410377  Ecoul = 8.271038501921783e-18
cycle= 3 E= -0.196849398441038  delta_E= -0.000152  |g|= 0.000751  |ddm|= 0.177
    CPU time for cycle= 3     26.94 sec, wall time      0.21 sec
E1 = -0.19685236034843268  Ecoul = 1.3016600145918114e-17
cycle= 4 E= -0.196852360348433  delta_E= -2.96e-06  |g|= 0.000268  |ddm|= 0.0996
    CPU time for cycle= 4     95.92 sec, wall time      0.75 sec
E1 = -0.19685278628099406  Ecoul = -1.874101483412133e-17
cycle= 5 E= -0.196852786280994  delta_E= -4.26e-07  |g|= 2.48e-05  |ddm|= 0.0297
    CPU time for cycle= 5     85.59 sec, wall time      0.67 sec
E1 = -0.1968527903173132  Ecoul = 2.7514634805868315e-18
cycle= 6 E= -0.196852790317313  delta_E= -4.04e-09  |g|= 2.56e-06  |ddm|= 0.0026
    CPU time for cycle= 6     82.18 sec, wall time      0.64 sec
E1 = -0.19685279036041606  Ecoul = -5.052221473241116e-18
cycle= 7 E= -0.196852790360416  delta_E= -4.31e-11  |g|= 5.36e-09  |ddm|= 0.000247
    CPU time for cycle= 7     90.90 sec, wall time      0.72 sec
E1 = -0.19685279036041625  Ecoul = 2.623436758394436e-19
Extra cycle  E= -0.196852790360416  delta_E= -1.94e-16  |g|= 9.87e-10  |ddm|= 5.09e-07
    CPU time for scf_cycle    781.44 sec, wall time      6.40 sec
    CPU time for SCF    781.44 sec, wall time      6.40 sec
converged SCF energy = -0.196852790360416
