#INFO: **** input file is /home/nkousuke/lustre/toBeSync/turboRVB/05turbo-genius-development/turbogenius_paper/04data/sanity_checks/03pyscf_HF_turbo_VMC_via_trexio/00open_boundary/results/NH/pyscf-HF-workflow/run.py ****

from pyscf_wrapper import Pyscf_wrapper

# input variables
pyscf_chkfile="pyscf.chk"
structure_file="NH.xyz"

# input variables
omp_num_threads=128
charge=0
spin=2
basis="ccecp-ccpvqz"
ecp="ccecp"
scf_method="HF"
dft_xc="NA"
solver_newton=False
MP2_flag=False
CCSD_flag=False
pyscf_output="out.pyscf"
twist_average=False
exp_to_discard=0.0
kpt=[0.0, 0.0, 0.0]
kpt_grid=[1, 1, 1]
smearing_method="fermi"
smearing_sigma=0.0

pyscf_calc=Pyscf_wrapper(
                        structure_file=structure_file,
                        chkfile=pyscf_chkfile,
                        )

pyscf_calc.run_pyscf(
                  omp_num_threads=omp_num_threads,
                  charge=charge,
                  spin=spin,
                  basis=basis,
                  ecp=ecp,
                  scf_method=scf_method,
                  dft_xc=dft_xc,
                  solver_newton=solver_newton,
                  MP2_flag=MP2_flag,
                  CCSD_flag=CCSD_flag,
                  pyscf_output=pyscf_output,
                  twist_average=twist_average,
                  exp_to_discard=exp_to_discard,
                  kpt=kpt,
                  kpt_grid=kpt_grid,
                  smearing_method=smearing_method,
                  smearing_sigma=smearing_sigma
                  )
                #INFO: ******************** input file end ********************


System: uname_result(system='Linux', node='spcc-238', release='5.4.0-66-generic', version='#74-Ubuntu SMP Wed Jan 27 22:54:38 UTC 2021', machine='x86_64', processor='x86_64')  Threads 128
Python 3.7.3 (default, Mar 27 2019, 22:11:17) 
[GCC 7.3.0]
numpy 1.20.1  scipy 1.7.3
Date: Mon Dec 19 18:12:05 2022
PySCF version 2.0.1
PySCF path  /home/nkousuke/application/anaconda3/lib/python3.7/site-packages/pyscf

[CONFIG] conf_file /home/nkousuke/.pyscf_conf.py
[INPUT] verbose = 5
[INPUT] max_memory = 506335.1328125 
[INPUT] num. atoms = 2
[INPUT] num. electrons = 6
[INPUT] charge = 0
[INPUT] spin (= nelec alpha-beta = 2S) = 2
[INPUT] symmetry False subgroup None
[INPUT] Mole.unit = A
[INPUT]  1 N      0.000000000000   0.000000000000   0.129500000000 AA    0.000000000000   0.000000000000   0.244719533131 Bohr
[INPUT]  2 H      0.000000000000   0.000000000000  -0.906500000000 AA    0.000000000000   0.000000000000  -1.713036731918 Bohr
[INPUT] ---------------- BASIS SET ---------------- 
[INPUT] l, kappa, [nprim/nctr], expnt,             c_1 c_2 ...
[INPUT] N
[INPUT] 0    0    [9    /1   ]  42.693822         -0.0009357
                                19.963207         0.0063295
                                9.3345971         0.0105038
                                4.9278187         -0.1653735
                                2.04092           -0.0005352
                                0.96708           0.2452063
                                0.476131          0.4582128
                                0.211443          0.3641224
                                0.098869          0.0620406
[INPUT] 0    0    [1    /1   ]  1.625001             1
[INPUT] 0    0    [1    /1   ]  0.310826             1
[INPUT] 0    0    [1    /1   ]  0.135764             1
[INPUT] 1    0    [9    /1   ]  18.925871         0.0073505
                                9.225603          0.0292844
                                4.581431          0.0652168
                                2.300164          0.1405153
                                1.154825          0.2328188
                                0.582039          0.2989556
                                0.290535          0.2802507
                                0.145867          0.1527995
                                0.073234          0.0355475
[INPUT] 1    0    [1    /1   ]  1.02075              1
[INPUT] 1    0    [1    /1   ]  0.413103             1
[INPUT] 1    0    [1    /1   ]  0.140736             1
[INPUT] 2    0    [1    /1   ]  3.028459             1
[INPUT] 2    0    [1    /1   ]  1.009895             1
[INPUT] 2    0    [1    /1   ]  0.346233             1
[INPUT] 3    0    [1    /1   ]  2.024747             1
[INPUT] 3    0    [1    /1   ]  0.691129             1
[INPUT] 4    0    [1    /1   ]  1.357512             1
[INPUT] H
[INPUT] 0    0    [8    /1   ]  23.843185         0.0041149
                                10.212443         0.0104644
                                4.374164          0.0280111
                                1.873529          0.0758862
                                0.802465          0.1821062
                                0.343709          0.3485214
                                0.147217          0.3782313
                                0.063055          0.1164241
[INPUT] 0    0    [1    /1   ]  0.081856             1
[INPUT] 0    0    [1    /1   ]  0.233254             1
[INPUT] 0    0    [1    /1   ]  0.664673             1
[INPUT] 1    0    [1    /1   ]  0.284469             1
[INPUT] 1    0    [1    /1   ]  0.847159             1
[INPUT] 1    0    [1    /1   ]  2.522868             1
[INPUT] 2    0    [1    /1   ]  0.665279             1
[INPUT] 2    0    [1    /1   ]  2.048739             1
[INPUT] 3    0    [1    /1   ]  1.42146              1

nuclear repulsion = 2.55394406814672
number of shells = 24
number of NR pGTOs = 123
number of NR cGTOs = 84
basis = ccecp-ccpvqz
ecp = ccecp
CPU time:         5.77


******** <class 'pyscf.scf.rohf.ROHF'> ********
method = ROHF-RHF
initial guess = minao
damping factor = 0
level_shift factor = 0
DIIS = <class 'pyscf.scf.diis.CDIIS'>
diis_start_cycle = 1
diis_space = 8
SCF conv_tol = 1e-09
SCF conv_tol_grad = None
SCF max_cycles = 200
direct_scf = True
direct_scf_tol = 1e-13
chkfile to save SCF result = pyscf.chk
max_memory 506335 MB (current use 106 MB)
num. doubly occ = 2  num. singly occ = 2
Set gradient conv threshold to 3.16228e-05
E1 = -21.007864053740747  Ecoul = 8.747686869820372
init E= -9.70623311577366
cond(S) = 14815.30322876596
    CPU time for initialize scf     80.12 sec, wall time      0.75 sec
  HOMO = -0.228872526133692  LUMO = 0.111511688843702
                  Roothaan           | alpha              | beta
  Highest 2-occ = -0.419180876944713 | -0.419180876944713 | -0.419180876944713
  Lowest 0-occ =   0.111511688843702 |  0.111511688843701 |  0.111511688843701
  1-occ =         -0.228872526133699 | -0.228872526133701 | -0.228872526133701
  1-occ =         -0.228872526133692 | -0.228872526133701 | -0.228872526133701
  Roothaan mo_energy =
[-1.14083059 -0.41918088 -0.22887253 -0.22887253  0.11151169  0.37727503
  0.4256368   0.46224113  0.46224113  0.48802091  0.65525556  0.65525556
  0.94092641  0.94092641  1.05259433  1.15024484  1.16914635  1.16914635
  1.48213986  2.01630634  2.01630634  2.15423153  2.1573997   2.1573997
  2.33592988  2.33592988  2.56791279  2.67494032  2.67494032  2.69828736
  2.69828736  2.74360988  3.01817507  3.07476837  3.07476837  3.17037796
  3.17037796  3.19089859  3.19089859  3.86000194  4.15062689  4.15062689
  4.52267101  6.0014761   6.0014761   6.29898066  6.29898066  6.61560412
  6.61560412  6.83880419  6.83928222  6.83928222  7.16010191  7.16110711
  7.16110711  7.19370649  7.19370649  7.46253217  7.70776175  7.70776175
  7.80751464  8.0996441   8.0996441   8.50909249  8.50909249  8.6937687
  8.71010631  8.71010631  8.83294984  8.83294984  8.98804688  8.98804688
  9.09861015  9.09861015  9.94446841  9.94446841  9.96153756  9.96153756
 10.15879502 11.05362406 11.9706233  11.9706233  12.60319394 17.9052316 ]
E1 = -20.93893860308682  Ecoul = 8.195055094568161
cycle= 1 E= -10.1899394403719  delta_E= -0.484  |g|= 0.212  |ddm|= 1.53
    CPU time for cycle= 1    129.67 sec, wall time      1.09 sec
  HOMO = -0.250053544628729  LUMO = 0.103148257283901
                  Roothaan           | alpha              | beta
  Highest 2-occ = -0.600653034292651 | -0.642414703202687 | -0.558891365382618
  Lowest 0-occ =   0.103148257283901 | 0.0973839975664705 |  0.108912517001327
  1-occ =         -0.250053544628731 | -0.573152192650353 |   0.10916964314933
  1-occ =         -0.250053544628729 | -0.573152192650352 |  0.109169643149331
  Roothaan mo_energy =
[-1.11055122 -0.60065303 -0.25005354 -0.25005354  0.10314826  0.38511052
  0.42879253  0.46986229  0.46986229  0.48090124  0.62036572  0.62036572
  0.92882121  0.92882121  1.02612622  1.12754308  1.16716988  1.16716988
  1.47109696  1.990614    1.990614    2.11376985  2.11376985  2.15739381
  2.28553441  2.28553441  2.52020523  2.62651884  2.62651884  2.67829638
  2.67829638  2.70123003  3.01388226  3.05675226  3.05675226  3.14130649
  3.14130649  3.19913843  3.19913843  3.82388682  4.11976447  4.11976447
  4.48998032  5.94852444  5.94852444  6.25199933  6.25199933  6.56041865
  6.56041865  6.79864951  6.79864951  6.80281556  7.10701638  7.10880643
  7.10880643  7.15704248  7.15704248  7.40780221  7.6513222   7.6513222
  7.75779615  8.0301751   8.0301751   8.48563464  8.48563464  8.68033564
  8.68033564  8.6844047   8.7735216   8.7735216   8.93709502  8.93709502
  9.05332024  9.05332024  9.88081659  9.88081659  9.89236154  9.89236154
 10.09768724 11.00153607 11.92452178 11.92452178 12.56118002 17.81411475]
E1 = -21.379509953757623  Ecoul = 8.6158741878697
cycle= 2 E= -10.2096916977412  delta_E= -0.0198  |g|= 0.0989  |ddm|= 0.445
    CPU time for cycle= 2     76.36 sec, wall time      0.60 sec
  HOMO = -0.177728022130045  LUMO = 0.113056506080375
                  Roothaan           | alpha              | beta
  Highest 2-occ = -0.549565361662943 |  -0.57599263964022 | -0.490843280994569
  Lowest 0-occ =   0.113056506080375 |  0.111065465031608 |   0.12095415616891
  1-occ =         -0.177728022130063 |  -0.51732258402272 |  0.201738952380105
  1-occ =         -0.177728022130045 |  -0.51732258402272 |  0.201738952380106
  Roothaan mo_energy =
[-1.04519891 -0.54956536 -0.17772802 -0.17772802  0.11305651  0.39793072
  0.44675581  0.47476575  0.47476575  0.50556947  0.63883729  0.63883729
  0.95728343  0.95728343  1.04682897  1.1473264   1.187655    1.187655
  1.50309842  2.04588872  2.04588872  2.14080528  2.14080528  2.20205195
  2.3201154   2.3201154   2.55904847  2.6542137   2.6542137   2.71832311
  2.71832311  2.74602112  3.05009872  3.09251882  3.09251882  3.20457472
  3.20457472  3.24173308  3.24173308  3.8729519   4.16600012  4.16600012
  4.54029806  5.98943779  5.98943779  6.30727455  6.30727455  6.65150859
  6.65150859  6.8633257   6.8633257   6.86468964  7.17993884  7.1861105
  7.1861105   7.21413847  7.21413847  7.48313532  7.69272028  7.69272028
  7.79932072  8.06525127  8.06525127  8.54215573  8.54215573  8.73933279
  8.73933279  8.7548581   8.86633348  8.86633348  9.02848915  9.02848915
  9.10431095  9.10431095  9.98396653  9.98396653 10.00207666 10.00207666
 10.16901573 11.0924208  12.00656399 12.00656399 12.6539618  17.94356858]
E1 = -21.260698995745688  Ecoul = 8.49477408234732
cycle= 3 E= -10.2119808452517  delta_E= -0.00229  |g|= 0.0133  |ddm|= 0.135
    CPU time for cycle= 3    113.69 sec, wall time      0.90 sec
  HOMO = -0.182710707290284  LUMO = 0.115205301240747
                  Roothaan           | alpha              | beta
  Highest 2-occ = -0.552565701323135 |  -0.59379031517382 | -0.510336631406052
  Lowest 0-occ =   0.115205301240747 |   0.11008355183823 |  0.120025266894241
  1-occ =         -0.182710707290285 | -0.538507862444743 |  0.177457289914193
  1-occ =         -0.182710707290284 | -0.538507862444744 |  0.177457289914194
  Roothaan mo_energy =
[-1.04535831 -0.5525657  -0.18271071 -0.18271071  0.1152053   0.39786205
  0.44610281  0.47203506  0.47203506  0.50817816  0.64227874  0.64227874
  0.95614752  0.95614752  1.04896665  1.14867141  1.18649785  1.18649785
  1.50482335  2.04104324  2.04104324  2.14586106  2.14586106  2.19668666
  2.32618824  2.32618824  2.56250009  2.65874995  2.65874995  2.71620164
  2.71620164  2.74753461  3.04794789  3.09194589  3.09194589  3.19900752
  3.19900752  3.23663883  3.23663883  3.87445675  4.16654479  4.16654479
  4.54253421  5.99666026  5.99666026  6.31153397  6.31153397  6.6462791
  6.6462791   6.85916098  6.85916098  6.86679468  7.18455641  7.18662481
  7.18662481  7.21308625  7.21308625  7.48289847  7.69872074  7.69872074
  7.80324243  8.07707849  8.07707849  8.54274212  8.54274212  8.74150292
  8.74150292  8.74895486  8.85860472  8.85860472  9.02217187  9.02217187
  9.11082869  9.11082869  9.97819647  9.97819647  9.99197936  9.99197936
 10.17642342 11.09102219 12.00438409 12.00438409 12.64899718 17.93505823]
E1 = -21.276812693461576  Ecoul = 8.510760531085992
cycle= 4 E= -10.2121080942289  delta_E= -0.000127  |g|= 0.00729  |ddm|= 0.0353
    CPU time for cycle= 4     72.42 sec, wall time      0.58 sec
  HOMO = -0.179310430120663  LUMO = 0.115260377276979
                  Roothaan           | alpha              | beta
  Highest 2-occ = -0.549989963105505 |  -0.59106855572876 | -0.506761342449426
  Lowest 0-occ =   0.115260377276979 |  0.110311680376437 |  0.120156227789331
  1-occ =         -0.179310430120665 | -0.537102755026958 |  0.181717721858811
  1-occ =         -0.179310430120663 | -0.537102755026958 |  0.181717721858811
  Roothaan mo_energy =
[-1.04271645 -0.54998996 -0.17931043 -0.17931043  0.11526038  0.39839306
  0.44747682  0.471678    0.471678    0.50886963  0.64234677  0.64234677
  0.95732489  0.95732489  1.04951186  1.1491427   1.18757645  1.18757645
  1.50601751  2.0429834   2.0429834   2.14611484  2.14611484  2.19968005
  2.32662467  2.32662467  2.56356172  2.65923565  2.65923565  2.71783105
  2.71783105  2.74882553  3.04976821  3.09333393  3.09333393  3.20174677
  3.20174677  3.23909333  3.23909333  3.87613249  4.16819565  4.16819565
  4.5443977   5.99728065  5.99728065  6.31278111  6.31278111  6.64990395
  6.64990395  6.86192334  6.86192334  6.86890748  7.18659575  7.18883902
  7.18883902  7.21520872  7.21520872  7.48584261  7.70017157  7.70017157
  7.80467881  8.07752     8.07752     8.54491978  8.54491978  8.74398298
  8.74398298  8.75237764  8.86273618  8.86273618  9.02579615  9.02579615
  9.1122856   9.1122856   9.98189474  9.98189474  9.99687289  9.99687289
 10.17836245 11.0942872  12.00749447 12.00749447 12.65267488 17.94025661]
E1 = -21.269675537728055  Ecoul = 8.503606874772235
cycle= 5 E= -10.2121245948091  delta_E= -1.65e-05  |g|= 0.000612  |ddm|= 0.0116
    CPU time for cycle= 5     68.70 sec, wall time      0.54 sec
  HOMO = -0.179333675467846  LUMO = 0.115276590326742
                  Roothaan           | alpha              | beta
  Highest 2-occ = -0.549937017775445 | -0.592047170872858 | -0.507757352639961
  Lowest 0-occ =   0.115276590326742 |  0.110353735507353 |  0.120209115910735
  1-occ =         -0.179333675467847 | -0.538679769419836 |  0.180207050500911
  1-occ =         -0.179333675467846 | -0.538679769419836 |  0.180207050500911
  Roothaan mo_energy =
[-1.04270458 -0.54993702 -0.17933368 -0.17933368  0.11527659  0.39833435
  0.44747407  0.47154504  0.47154504  0.50888766  0.64233111  0.64233111
  0.95723863  0.95723863  1.04952317  1.14911176  1.18750345  1.18750345
  1.50600489  2.04281722  2.04281722  2.14609964  2.14609964  2.19957166
  2.32662427  2.32662427  2.56359566  2.65926363  2.65926363  2.71769822
  2.71769822  2.74880995  3.04965523  3.09323383  3.09323383  3.20162522
  3.20162522  3.23892846  3.23892846  3.87612565  4.16814332  4.16814332
  4.54436998  5.99727394  5.99727394  6.31273857  6.31273857  6.64990561
  6.64990561  6.86179005  6.86179005  6.86887612  7.18662091  7.18879887
  7.18879887  7.21510329  7.21510329  7.48585904  7.70021401  7.70021401
  7.80467842  8.07759802  8.07759802  8.54480223  8.54480223  8.74391398
  8.74391398  8.75220929  8.86267925  8.86267925  9.02572766  9.02572766
  9.1122556   9.1122556   9.98190114  9.98190114  9.99687863  9.99687863
 10.17840834 11.09429652 12.00745828 12.00745828 12.65263562 17.94041469]
E1 = -21.26926630575385  Ecoul = 8.50319742309349
cycle= 6 E= -10.2121248145136  delta_E= -2.2e-07  |g|= 9e-05  |ddm|= 0.00163
    CPU time for cycle= 6    110.22 sec, wall time      0.87 sec
  HOMO = -0.179342815796247  LUMO = 0.115281403251947
                  Roothaan           | alpha              | beta
  Highest 2-occ = -0.549921827980176 | -0.592074411039737 | -0.507774003533805
  Lowest 0-occ =   0.115281403251947 |  0.110352943212164 |  0.120208097255681
  1-occ =         -0.179342815796247 | -0.538804433677721 |  0.180149260172815
  1-occ =         -0.179342815796247 |  -0.53880443367772 |  0.180149260172814
  Roothaan mo_energy =
[-1.04271322 -0.54992183 -0.17934282 -0.17934282  0.1152814   0.39833068
  0.44748236  0.47153251  0.47153251  0.50889486  0.6423367   0.6423367
  0.95724016  0.95724016  1.04953182  1.14911716  1.18750155  1.18750155
  1.50601218  2.04281377  2.04281377  2.1461114   2.1461114   2.1995636
  2.32663938  2.32663938  2.56360857  2.65927806  2.65927806  2.71770161
  2.71770161  2.748819    3.04965015  3.093236    3.093236    3.20162286
  3.20162286  3.23891797  3.23891797  3.87613154  4.16814935  4.16814935
  4.54437939  5.99729038  5.99729038  6.31275077  6.31275077  6.64990052
  6.64990052  6.86179866  6.86179866  6.86888035  7.18663214  7.18880594
  7.18880594  7.21510911  7.21510911  7.48586207  7.70023069  7.70023069
  7.8046912   8.07762577  8.07762577  8.54480363  8.54480363  8.74391585
  8.74391585  8.75219253  8.86268426  8.86268426  9.02572582  9.02572582
  9.11226949  9.11226949  9.98189857  9.98189857  9.99687467  9.99687467
 10.17842807 11.09429342 12.00745634 12.00745634 12.65262545 17.94040375]
E1 = -21.269277474043896  Ecoul = 8.503208585013079
cycle= 7 E= -10.2121248208841  delta_E= -6.37e-09  |g|= 1.87e-05  |ddm|= 0.000302
    CPU time for cycle= 7     84.88 sec, wall time      0.67 sec
  HOMO = -0.17933437684473  LUMO = 0.115283191205323
                  Roothaan           | alpha              | beta
  Highest 2-occ = -0.549913743414486 |  -0.59206310923836 | -0.507759633591587
  Lowest 0-occ =   0.115283191205323 |  0.110355666888646 |  0.120210469489685
  1-occ =          -0.17933437684473 | -0.538815087471553 |  0.180154223675446
  1-occ =          -0.17933437684473 | -0.538815087471553 |  0.180154223675445
  Roothaan mo_energy =
[-1.0427074  -0.54991374 -0.17933438 -0.17933438  0.11528319  0.39833128
  0.44748394  0.47152755  0.47152755  0.50889791  0.6423397   0.6423397
  0.95724205  0.95724205  1.04953514  1.1491189   1.18750352  1.18750352
  1.50601572  2.0428162   2.0428162   2.14611505  2.14611505  2.19956737
  2.32664354  2.32664354  2.56361382  2.65928263  2.65928263  2.71770378
  2.71770378  2.74882289  3.04965355  3.09323894  3.09323894  3.20162665
  3.20162665  3.23892098  3.23892098  3.8761364   4.16815383  4.16815383
  4.54438476  5.99729525  5.99729525  6.31275535  6.31275535  6.64990781
  6.64990781  6.86180315  6.86180315  6.86888582  7.18663845  7.18881107
  7.18881107  7.21511373  7.21511373  7.48586961  7.70023772  7.70023772
  7.80469731  8.07763224  8.07763224  8.54480849  8.54480849  8.74392216
  8.74392216  8.7521983   8.8626915   8.8626915   9.02573242  9.02573242
  9.11227519  9.11227519  9.98190597  9.98190597  9.99688361  9.99688361
 10.17843468 11.09430071 12.00746329 12.00746329 12.65263261 17.94041458]
E1 = -21.269251258420937  Ecoul = 8.503182369220738
cycle= 8 E= -10.2121248210535  delta_E= -1.69e-10  |g|= 2.59e-06  |ddm|= 3.78e-05
    CPU time for cycle= 8     81.32 sec, wall time      0.65 sec
  HOMO = -0.179335775234549  LUMO = 0.115282942038479
                  Roothaan           | alpha              | beta
  Highest 2-occ = -0.549914806368759 | -0.592066567667514 | -0.507763045070003
  Lowest 0-occ =   0.115282942038479 |   0.11035552270763 |  0.120210361369326
  1-occ =         -0.179335775234553 | -0.538819867857466 |  0.180148687683091
  1-occ =         -0.179335775234549 | -0.538819867857464 |   0.18014868768309
  Roothaan mo_energy =
[-1.04270859 -0.54991481 -0.17933578 -0.17933578  0.11528294  0.39833107
  0.44748345  0.47152835  0.47152835  0.50889741  0.64233904  0.64233904
  0.95724143  0.95724143  1.0495346   1.14911854  1.18750303  1.18750303
  1.50601508  2.04281533  2.04281533  2.14611426  2.14611426  2.19956686
  2.32664267  2.32664267  2.56361305  2.65928187  2.65928187  2.71770299
  2.71770299  2.74882204  3.0496529   3.09323817  3.09323817  3.20162584
  3.20162584  3.23892038  3.23892038  3.87613552  4.16815292  4.16815292
  4.54438382  5.99729417  5.99729417  6.31275416  6.31275416  6.64990676
  6.64990676  6.86180208  6.86180208  6.86888481  7.18663722  7.18880979
  7.18880979  7.21511268  7.21511268  7.48586859  7.70023687  7.70023687
  7.80469644  8.07763119  8.07763119  8.54480751  8.54480751  8.74392128
  8.74392128  8.75219752  8.86269041  8.86269041  9.02573127  9.02573127
  9.11227413  9.11227413  9.98190469  9.98190469  9.99688254  9.99688254
 10.17843339 11.09429956 12.00746221 12.00746221 12.65263156 17.94041335]
E1 = -21.269255064328927  Ecoul = 8.503186175124128
Extra cycle  E= -10.2121248210581  delta_E= -4.6e-12  |g|= 1.11e-06  |ddm|= 7.47e-06
    CPU time for scf_cycle    870.28 sec, wall time      7.08 sec
    CPU time for SCF    870.30 sec, wall time      7.08 sec
converged SCF energy = -10.2121248210581
