#INFO: **** input file is /home/nkousuke/lustre/toBeSync/turboRVB/05turbo-genius-development/turbogenius_paper/04data/sanity_checks/03pyscf_HF_turbo_VMC_via_trexio/00open_boundary/results/As/pyscf-HF-workflow/run.py ****

from pyscf_wrapper import Pyscf_wrapper

# input variables
pyscf_chkfile="pyscf.chk"
structure_file="As.xyz"

# input variables
omp_num_threads=128
charge=0
spin=3
basis="ccecp-ccpvqz"
ecp="ccecp"
scf_method="HF"
dft_xc="NA"
solver_newton=False
MP2_flag=False
CCSD_flag=False
pyscf_output="out.pyscf"
twist_average=False
exp_to_discard=0.0
kpt=[0.0, 0.0, 0.0]
kpt_grid=[1, 1, 1]
smearing_method="fermi"
smearing_sigma=0.0

pyscf_calc=Pyscf_wrapper(
                        structure_file=structure_file,
                        chkfile=pyscf_chkfile,
                        )

pyscf_calc.run_pyscf(
                  omp_num_threads=omp_num_threads,
                  charge=charge,
                  spin=spin,
                  basis=basis,
                  ecp=ecp,
                  scf_method=scf_method,
                  dft_xc=dft_xc,
                  solver_newton=solver_newton,
                  MP2_flag=MP2_flag,
                  CCSD_flag=CCSD_flag,
                  pyscf_output=pyscf_output,
                  twist_average=twist_average,
                  exp_to_discard=exp_to_discard,
                  kpt=kpt,
                  kpt_grid=kpt_grid,
                  smearing_method=smearing_method,
                  smearing_sigma=smearing_sigma
                  )
                #INFO: ******************** input file end ********************


System: uname_result(system='Linux', node='spcc-066', release='5.4.0-66-generic', version='#74-Ubuntu SMP Wed Jan 27 22:54:38 UTC 2021', machine='x86_64', processor='x86_64')  Threads 128
Python 3.7.3 (default, Mar 27 2019, 22:11:17) 
[GCC 7.3.0]
numpy 1.20.1  scipy 1.7.3
Date: Mon Dec 19 18:06:05 2022
PySCF version 2.0.1
PySCF path  /home/nkousuke/application/anaconda3/lib/python3.7/site-packages/pyscf

[CONFIG] conf_file /home/nkousuke/.pyscf_conf.py
[INPUT] verbose = 5
[INPUT] max_memory = 502425.17578125 
[INPUT] num. atoms = 1
[INPUT] num. electrons = 5
[INPUT] charge = 0
[INPUT] spin (= nelec alpha-beta = 2S) = 3
[INPUT] symmetry False subgroup None
[INPUT] Mole.unit = A
[INPUT]  1 As     0.000000000000   0.000000000000   0.000000000000 AA    0.000000000000   0.000000000000   0.000000000000 Bohr
[INPUT] ---------------- BASIS SET ---------------- 
[INPUT] l, kappa, [nprim/nctr], expnt,             c_1 c_2 ...
[INPUT] As
[INPUT] 0    0    [9    /1   ]  50.230536         -0.000538
                                22.441775         0.00366
                                10.026436         -0.023992
                                4.479567          0.158076
                                2.001361          -0.419346
                                0.894159          -0.100519
                                0.399488          0.45002
                                0.178482          0.605104
                                0.079741          0.190009
[INPUT] 0    0    [1    /1   ]  0.530586             1
[INPUT] 0    0    [1    /1   ]  0.234584             1
[INPUT] 0    0    [1    /1   ]  0.103715             1
[INPUT] 1    0    [9    /1   ]  22.695464         0.000322
                                10.529662         -0.00312
                                4.885284          0.029849
                                2.266549          -0.127882
                                1.051576          -0.004461
                                0.487883          0.248666
                                0.226356          0.457083
                                0.105019          0.351483
                                0.048724          0.091636
[INPUT] 1    0    [1    /1   ]  0.550578             1
[INPUT] 1    0    [1    /1   ]  0.212539             1
[INPUT] 1    0    [1    /1   ]  0.082046             1
[INPUT] 2    0    [1    /1   ]  1.374619             1
[INPUT] 2    0    [1    /1   ]  0.506785             1
[INPUT] 2    0    [1    /1   ]  0.186838             1
[INPUT] 3    0    [1    /1   ]  0.642896             1
[INPUT] 3    0    [1    /1   ]  0.261483             1
[INPUT] 4    0    [1    /1   ]  0.561801             1

nuclear repulsion = 0
number of shells = 14
number of NR pGTOs = 86
number of NR cGTOs = 54
basis = ccecp-ccpvqz
ecp = ccecp
CPU time:         8.24


******** <class 'pyscf.scf.rohf.ROHF'> ********
method = ROHF-RHF
initial guess = minao
damping factor = 0
level_shift factor = 0
DIIS = <class 'pyscf.scf.diis.CDIIS'>
diis_start_cycle = 1
diis_space = 8
SCF conv_tol = 1e-09
SCF conv_tol_grad = None
SCF max_cycles = 200
direct_scf = True
direct_scf_tol = 1e-13
chkfile to save SCF result = pyscf.chk
max_memory 502425 MB (current use 105 MB)
num. doubly occ = 1  num. singly occ = 3
Set gradient conv threshold to 3.16228e-05
E1 = -9.61236611505031  Ecoul = 3.876275527787384
init E= -5.73609058726293
cond(S) = 745.7735487998629
    CPU time for initialize scf     73.14 sec, wall time      0.69 sec
  HOMO = -0.154631443164502  LUMO = 0.304821660762536
                  Roothaan           | alpha              | beta
  Highest 2-occ = -0.703884575362544 | -0.703884575362546 | -0.703884575362546
  Lowest 0-occ =   0.304821660762536 |  0.304821660762538 |  0.304821660762538
  1-occ =         -0.154631443164504 | -0.154631443164504 | -0.154631443164504
  1-occ =         -0.154631443164504 | -0.154631443164504 | -0.154631443164504
  1-occ =         -0.154631443164502 | -0.154631443164504 | -0.154631443164504
  Roothaan mo_energy =
[-0.70388458 -0.15463144 -0.15463144 -0.15463144  0.30482166  0.32983309
  0.32983309  0.32983309  0.42999554  0.42999554  0.42999554  0.42999554
  0.42999554  0.95188898  0.95188898  0.95188898  0.95188898  0.95188898
  0.95188898  0.95188898  1.54874795  1.54874795  1.54874795  1.64341695
  1.64341695  1.64341695  1.64341695  1.64341695  1.74653427  2.60612756
  2.60612756  2.60612756  2.60612756  2.60612756  2.60612756  2.60612756
  2.65094415  2.65094415  2.65094415  2.65094415  2.65094415  2.65094415
  2.65094415  2.65094415  2.65094415  7.5609288   7.5609288   7.5609288
  7.5609288   7.5609288  14.61458496 14.61458496 14.61458496 20.89829211]
E1 = -9.45798654459678  Ecoul = 3.4048079997320437
cycle= 1 E= -6.05317854486474  delta_E= -0.317  |g|= 0.0889  |ddm|= 1.13
    CPU time for cycle= 1     28.66 sec, wall time      0.22 sec
  HOMO = -0.187620014633886  LUMO = 0.284003087083421
                  Roothaan           | alpha              | beta
  Highest 2-occ =  -0.74339957067864 |  -0.86648719771266 | -0.620311943644621
  Lowest 0-occ =   0.284003087083421 |   0.25437020927856 |  0.313635964888283
  1-occ =          -0.18762001463389 | -0.390225130925735 | 0.0310994130726266
  1-occ =         -0.187620014633887 | -0.390225130925734 | 0.0310994130726269
  1-occ =         -0.187620014633886 | -0.390225130925735 | 0.0310994130726268
  Roothaan mo_energy =
[-0.74339957 -0.18762001 -0.18762001 -0.18762001  0.28400309  0.32096996
  0.32096996  0.32096996  0.40574355  0.40574355  0.40574355  0.40574355
  0.40574355  0.9273599   0.9273599   0.9273599   0.9273599   0.9273599
  0.9273599   0.9273599   1.50845756  1.50845756  1.50845756  1.60148498
  1.60148498  1.60148498  1.60148498  1.60148498  1.70439513  2.55619552
  2.55619552  2.55619552  2.55619552  2.55619552  2.55619552  2.55619552
  2.60773825  2.60773825  2.60773825  2.60773825  2.60773825  2.60773825
  2.60773825  2.60773825  2.60773825  7.49435125  7.49435125  7.49435125
  7.49435125  7.49435125 14.54556519 14.54556519 14.54556519 20.82620822]
E1 = -9.627238789551956  Ecoul = 3.561599799662726
cycle= 2 E= -6.06563898988923  delta_E= -0.0125  |g|= 0.0249  |ddm|= 0.486
    CPU time for cycle= 2     47.53 sec, wall time      0.37 sec
  HOMO = -0.152293623500697  LUMO = 0.303054795704055
                  Roothaan           | alpha              | beta
  Highest 2-occ = -0.706304498177766 | -0.835479948150506 | -0.566232832217415
  Lowest 0-occ =   0.303054795704055 |  0.280448140705456 |  0.331249435943195
  1-occ =         -0.152293623500702 | -0.367511341550396 | 0.0725265490418044
  1-occ =         -0.152293623500702 | -0.367511341550396 | 0.0725265490418054
  1-occ =         -0.152293623500697 | -0.367511341550395 | 0.0725265490418047
  Roothaan mo_energy =
[-0.7063045  -0.15229362 -0.15229362 -0.15229362  0.3030548   0.32600589
  0.32600589  0.32600589  0.42867765  0.42867765  0.42867765  0.42867765
  0.42867765  0.95041074  0.95041074  0.95041074  0.95041074  0.95041074
  0.95041074  0.95041074  1.54686443  1.54686443  1.54686443  1.64164603
  1.64164603  1.64164603  1.64164603  1.64164603  1.74443708  2.60417282
  2.60417282  2.60417282  2.60417282  2.60417282  2.60417282  2.60417282
  2.64883062  2.64883062  2.64883062  2.64883062  2.64883062  2.64883062
  2.64883062  2.64883062  2.64883062  7.55928973  7.55928973  7.55928973
  7.55928973  7.55928973 14.61319625 14.61319625 14.61319625 20.89691286]
E1 = -9.613068173673676  Ecoul = 3.547205964345472
cycle= 3 E= -6.0658622093282  delta_E= -0.000223  |g|= 0.00521  |ddm|= 0.0654
    CPU time for cycle= 3     31.76 sec, wall time      0.25 sec
  HOMO = -0.150408223707563  LUMO = 0.304998090485896
                  Roothaan           | alpha              | beta
  Highest 2-occ = -0.703607351196429 | -0.838123319091341 | -0.569870665799004
  Lowest 0-occ =   0.304998090485896 |  0.279081285640878 |  0.330210067428597
  1-occ =         -0.150408223707567 | -0.370223576338005 | 0.0692688766980913
  1-occ =         -0.150408223707564 | -0.370223576338005 | 0.0692688766980908
  1-occ =         -0.150408223707563 | -0.370223576338006 | 0.0692688766980915
  Roothaan mo_energy =
[-0.70360735 -0.15040822 -0.15040822 -0.15040822  0.30499809  0.32611583
  0.32611583  0.32611583  0.43021926  0.43021926  0.43021926  0.43021926
  0.43021926  0.95212672  0.95212672  0.95212672  0.95212672  0.95212672
  0.95212672  0.95212672  1.5489651   1.5489651   1.5489651   1.64377396
  1.64377396  1.64377396  1.64377396  1.64377396  1.74688426  2.60653595
  2.60653595  2.60653595  2.60653595  2.60653595  2.60653595  2.60653595
  2.65132914  2.65132914  2.65132914  2.65132914  2.65132914  2.65132914
  2.65132914  2.65132914  2.65132914  7.56139615  7.56139615  7.56139615
  7.56139615  7.56139615 14.61504332 14.61504332 14.61504332 20.89876388]
E1 = -9.612539726481852  Ecoul = 3.5466633627693263
cycle= 4 E= -6.06587636371253  delta_E= -1.42e-05  |g|= 0.000244  |ddm|= 0.0202
    CPU time for cycle= 4     18.90 sec, wall time      0.15 sec
  HOMO = -0.150658276011298  LUMO = 0.304823958884704
                  Roothaan           | alpha              | beta
  Highest 2-occ = -0.703875157407398 | -0.838134471368042 | -0.569566705218973
  Lowest 0-occ =   0.304823958884704 |  0.279328240279813 |  0.330357803377883
  1-occ =         -0.150658276011305 | -0.370503946963418 | 0.0692169894939005
  1-occ =         -0.150658276011301 | -0.370503946963418 | 0.0692169894939005
  1-occ =         -0.150658276011298 | -0.370503946963418 | 0.0692169894938994
  Roothaan mo_energy =
[-0.70387516 -0.15065828 -0.15065828 -0.15065828  0.30482396  0.32601818
  0.32601818  0.32601818  0.43001038  0.43001038  0.43001038  0.43001038
  0.43001038  0.95190316  0.95190316  0.95190316  0.95190316  0.95190316
  0.95190316  0.95190316  1.54862861  1.54862861  1.54862861  1.64343296
  1.64343296  1.64343296  1.64343296  1.64343296  1.74655327  2.60614704
  2.60614704  2.60614704  2.60614704  2.60614704  2.60614704  2.60614704
  2.65096602  2.65096602  2.65096602  2.65096602  2.65096602  2.65096602
  2.65096602  2.65096602  2.65096602  7.56094358  7.56094358  7.56094358
  7.56094358  7.56094358 14.61459499 14.61459499 14.61459499 20.8983027 ]
E1 = -9.61245122328509  Ecoul = 3.5465748358924762
cycle= 5 E= -6.06587638739261  delta_E= -2.37e-08  |g|= 1.87e-05  |ddm|= 0.00143
    CPU time for cycle= 5     32.25 sec, wall time      0.25 sec
  HOMO = -0.150658477408153  LUMO = 0.304830831062082
                  Roothaan           | alpha              | beta
  Highest 2-occ = -0.703867772254543 | -0.838152043014644 | -0.569595250868823
  Lowest 0-occ =   0.304830831062082 |   0.27930924389789 |   0.33034525327395
  1-occ =         -0.150658477408158 | -0.370518085955108 | 0.0691951568485228
  1-occ =         -0.150658477408155 | -0.370518085955109 | 0.0691951568485236
  1-occ =         -0.150658477408153 |  -0.37051808595511 | 0.0691951568485236
  Roothaan mo_energy =
[-0.70386777 -0.15065848 -0.15065848 -0.15065848  0.30483083  0.32602728
  0.32602728  0.32602728  0.43001486  0.43001486  0.43001486  0.43001486
  0.43001486  0.95190866  0.95190866  0.95190866  0.95190866  0.95190866
  0.95190866  0.95190866  1.54863868  1.54863868  1.54863868  1.64344357
  1.64344357  1.64344357  1.64344357  1.64344357  1.74656443  2.6061588
  2.6061588   2.6061588   2.6061588   2.6061588   2.6061588   2.6061588
  2.65097586  2.65097586  2.65097586  2.65097586  2.65097586  2.65097586
  2.65097586  2.65097586  2.65097586  7.5609594   7.5609594   7.5609594
  7.5609594   7.5609594  14.61461143 14.61461143 14.61461143 20.89831974]
E1 = -9.612471038554228  Ecoul = 3.546594650655944
cycle= 6 E= -6.06587638789828  delta_E= -5.06e-10  |g|= 1.96e-06  |ddm|= 0.000124
    CPU time for cycle= 6     18.43 sec, wall time      0.14 sec
  HOMO = -0.150657438896158  LUMO = 0.304830897052604
                  Roothaan           | alpha              | beta
  Highest 2-occ = -0.703867361999297 | -0.838147765778317 | -0.569586958220277
  Lowest 0-occ =   0.304830897052604 |  0.279313646234632 |  0.330348147870582
  1-occ =         -0.150657438896168 | -0.370515671082596 | 0.0692004339133514
  1-occ =         -0.150657438896158 | -0.370515671082596 | 0.0692004339133506
  1-occ =         -0.150657438896158 | -0.370515671082595 | 0.0692004339133515
  Roothaan mo_energy =
[-0.70386736 -0.15065744 -0.15065744 -0.15065744  0.3048309   0.32602627
  0.32602627  0.32602627  0.43001502  0.43001502  0.43001502  0.43001502
  0.43001502  0.95190876  0.95190876  0.95190876  0.95190876  0.95190876
  0.95190876  0.95190876  1.54863861  1.54863861  1.54863861  1.64344347
  1.64344347  1.64344347  1.64344347  1.64344347  1.74656417  2.6061587
  2.6061587   2.6061587   2.6061587   2.6061587   2.6061587   2.6061587
  2.65097588  2.65097588  2.65097588  2.65097588  2.65097588  2.65097588
  2.65097588  2.65097588  2.65097588  7.56095912  7.56095912  7.56095912
  7.56095912  7.56095912 14.61461112 14.61461112 14.61461112 20.89831941]
E1 = -9.612467655047949  Ecoul = 3.5465912671436244
Extra cycle  E= -6.06587638790432  delta_E= -6.04e-12  |g|= 5.72e-07  |ddm|= 1.2e-05
    CPU time for scf_cycle    278.80 sec, wall time      2.29 sec
    CPU time for SCF    278.81 sec, wall time      2.29 sec
converged SCF energy = -6.06587638790432
