#INFO: **** input file is /home/nkousuke/lustre/toBeSync/turboRVB/05turbo-genius-development/turbogenius_paper/04data/sanity_checks/02pyscf_prep_LDA_via_trexio/00open_boundary/results/HOCl/pyscf-LDA-workflow/run.py ****

from pyscf_wrapper import Pyscf_wrapper

# input variables
pyscf_chkfile="pyscf.chk"
structure_file="HOCl.xyz"

# input variables
omp_num_threads=128
charge=0
spin=0
basis="ccecp-ccpvqz"
ecp="ccecp"
scf_method="DFT"
dft_xc="LDA_X,LDA_C_PZ"
solver_newton=False
MP2_flag=False
CCSD_flag=False
pyscf_output="out.pyscf"
twist_average=False
exp_to_discard=0.1
kpt=[0.0, 0.0, 0.0]
kpt_grid=[1, 1, 1]
smearing_method="fermi"
smearing_sigma=0.0

pyscf_calc=Pyscf_wrapper(
                        structure_file=structure_file,
                        chkfile=pyscf_chkfile,
                        )

pyscf_calc.run_pyscf(
                  omp_num_threads=omp_num_threads,
                  charge=charge,
                  spin=spin,
                  basis=basis,
                  ecp=ecp,
                  scf_method=scf_method,
                  dft_xc=dft_xc,
                  solver_newton=solver_newton,
                  MP2_flag=MP2_flag,
                  CCSD_flag=CCSD_flag,
                  pyscf_output=pyscf_output,
                  twist_average=twist_average,
                  exp_to_discard=exp_to_discard,
                  kpt=kpt,
                  kpt_grid=kpt_grid,
                  smearing_method=smearing_method,
                  smearing_sigma=smearing_sigma
                  )
                #INFO: ******************** input file end ********************


System: uname_result(system='Linux', node='spcc-205', release='5.4.0-66-generic', version='#74-Ubuntu SMP Wed Jan 27 22:54:38 UTC 2021', machine='x86_64', processor='x86_64')  Threads 128
Python 3.7.3 (default, Mar 27 2019, 22:11:17) 
[GCC 7.3.0]
numpy 1.20.1  scipy 1.7.3
Date: Thu Dec 22 05:30:58 2022
PySCF version 2.0.1
PySCF path  /home/nkousuke/application/anaconda3/lib/python3.7/site-packages/pyscf

[CONFIG] conf_file /home/nkousuke/.pyscf_conf.py
[INPUT] verbose = 5
[INPUT] max_memory = 507483.79296875 
[INPUT] num. atoms = 3
[INPUT] num. electrons = 14
[INPUT] charge = 0
[INPUT] spin (= nelec alpha-beta = 2S) = 0
[INPUT] symmetry False subgroup None
[INPUT] Mole.unit = A
[INPUT]  1 O      0.036140000000   1.096000000000   0.000000000000 AA    0.068294702142   2.071139832523   0.000000000000 Bohr
[INPUT]  2 H     -0.903430000000   1.311190000000   0.000000000000 AA   -1.707235272716   2.477789997268   0.000000000000 Bohr
[INPUT]  3 Cl     0.036140000000  -0.592900000000   0.000000000000 AA    0.068294702142  -1.120418619255   0.000000000000 Bohr
[INPUT] ---------------- BASIS SET ---------------- 
[INPUT] l, kappa, [nprim/nctr], expnt,             c_1 c_2 ...
[INPUT] H
[INPUT] 0    0    [8    /1   ]  23.843185         0.0041149
                                10.212443         0.0104644
                                4.374164          0.0280111
                                1.873529          0.0758862
                                0.802465          0.1821062
                                0.343709          0.3485214
                                0.147217          0.3782313
                                0.063055          0.1164241
[INPUT] 0    0    [1    /1   ]  0.081856             1
[INPUT] 0    0    [1    /1   ]  0.233254             1
[INPUT] 0    0    [1    /1   ]  0.664673             1
[INPUT] 1    0    [1    /1   ]  0.284469             1
[INPUT] 1    0    [1    /1   ]  0.847159             1
[INPUT] 1    0    [1    /1   ]  2.522868             1
[INPUT] 2    0    [1    /1   ]  0.665279             1
[INPUT] 2    0    [1    /1   ]  2.048739             1
[INPUT] 3    0    [1    /1   ]  1.42146              1
[INPUT] O
[INPUT] 0    0    [9    /1   ]  54.775216         -0.0012444
                                25.616801         0.010733
                                11.980245         0.0018889
                                6.992317          -0.1742537
                                2.620277          0.0017622
                                1.225429          0.3161846
                                0.577797          0.4512023
                                0.268022          0.3121534
                                0.125346          0.0511167
[INPUT] 0    0    [1    /1   ]  1.351771             1
[INPUT] 0    0    [1    /1   ]  0.843157             1
[INPUT] 0    0    [1    /1   ]  0.22438              1
[INPUT] 1    0    [9    /1   ]  22.217266         0.0104866
                                10.74755          0.0366435
                                5.315785          0.0803674
                                2.660761          0.162701
                                1.331816          0.2377791
                                0.678626          0.2811422
                                0.333673          0.2643189
                                0.167017          0.1466014
                                0.083598          0.0458145
[INPUT] 1    0    [1    /1   ]  1.106737             1
[INPUT] 1    0    [1    /1   ]  0.452364             1
[INPUT] 1    0    [1    /1   ]  0.148562             1
[INPUT] 2    0    [1    /1   ]  4.008867             1
[INPUT] 2    0    [1    /1   ]  1.344331             1
[INPUT] 2    0    [1    /1   ]  0.455711             1
[INPUT] 3    0    [1    /1   ]  2.763115             1
[INPUT] 3    0    [1    /1   ]  0.876289             1
[INPUT] 4    0    [1    /1   ]  1.759081             1
[INPUT] Cl
[INPUT] 0    0    [10   /1   ]  15.583847         0.002501
                                8.858485          -0.010046
                                5.035519          0.08581
                                2.862391          -0.290136
                                1.627098          -0.140314
                                0.924908          0.146839
                                0.525755          0.392484
                                0.29886           0.425061
                                0.169884          0.227195
                                0.096569          0.059828
[INPUT] 0    0    [1    /1   ]  1.038268             1
[INPUT] 0    0    [1    /1   ]  0.418863             1
[INPUT] 0    0    [1    /1   ]  0.16898              1
[INPUT] 1    0    [10   /1   ]  7.682894          -0.004609
                                4.507558          -0.001798
                                2.644587          -0.068614
                                1.551581          0.062352
                                0.910313          0.166337
                                0.534081          0.282292
                                0.313346          0.275967
                                0.18384           0.241328
                                0.107859          0.110223
                                0.063281          0.040289
[INPUT] 1    0    [1    /1   ]  2.626653             1
[INPUT] 1    0    [1    /1   ]  1.069041             1
[INPUT] 1    0    [1    /1   ]  0.435097             1
[INPUT] 2    0    [1    /1   ]  2.102692             1
[INPUT] 2    0    [1    /1   ]  0.763188             1
[INPUT] 2    0    [1    /1   ]  0.277005             1
[INPUT] 3    0    [1    /1   ]  1.139446             1
[INPUT] 3    0    [1    /1   ]  0.434852             1
[INPUT] 4    0    [1    /1   ]  0.844301             1

nuclear repulsion = 18.1982769961874
number of shells = 38
number of NR pGTOs = 213
number of NR cGTOs = 138
basis = ccecp-ccpvqz
ecp = ccecp
CPU time:         5.90


******** <class 'pyscf.df.df_jk.density_fit.<locals>.DFHF'> ********
method = DFHF-RKS-RHF
initial guess = minao
damping factor = 0
level_shift factor = 0
DIIS = <class 'pyscf.scf.diis.CDIIS'>
diis_start_cycle = 1
diis_space = 8
SCF conv_tol = 1e-09
SCF conv_tol_grad = None
SCF max_cycles = 200
direct_scf = True
direct_scf_tol = 1e-13
chkfile to save SCF result = pyscf.chk
max_memory 507483 MB (current use 106 MB)
XC library pyscf.dft.libxc version 5.1.7
    S. Lehtola, C. Steigemann, M. J. Oliveira, and M. A. Marques, SoftwareX 7, 1 (2018)
XC functionals = LDA_X,LDA_C_PZ
    P. A. M. Dirac, Math. Proc. Cambridge Philos. Soc. 26, 376 (1930)
    F. Bloch, Z. Phys. 57, 545 (1929)
    J. P. Perdew and A. Zunger, Phys. Rev. B 23, 5048 (1981)
radial grids: 
    Treutler-Ahlrichs [JCP 102, 346 (1995); DOI:10.1063/1.469408] (M4) radial grids
    
becke partition: Becke, JCP 88, 2547 (1988); DOI:10.1063/1.454033
pruning grids: <function nwchem_prune at 0x1551bfd5f6a8>
grids dens level: 3
symmetrized grids: False
atomic radii adjust function: <function treutler_atomic_radii_adjust at 0x1551bfd5f620>
small_rho_cutoff = 1e-07
Set gradient conv threshold to 3.16228e-05
atom O rad-grids = 75, ang-grids = [ 50  50  50  50  50  50  50  50  50  50  50  50  50  50  50  50  50  50
  50  50  50  50  86  86  86  86  86  86  86  86  86 266 266 266 266 266
 266 266 302 302 302 302 302 302 302 302 302 302 302 302 302 302 302 302
 302 302 302 266 266 266 266 266 266 266 266 266 266 266 266 266 266 266
 266 266 266]
atom H rad-grids = 50, ang-grids = [ 50  50  50  50  50  50  50  50  50  50  50  50  50  50  86  86  86  86
 266 266 266 266 302 302 302 302 302 302 302 302 302 302 302 302 302 266
 266 266 266 266 266 266 266 266 266 266 266 266 266 266]
atom Cl rad-grids = 80, ang-grids = [ 50  50  50  50  50  50  50  50  50  50  50  50  50  50  50  50  50  50
  50  50  50  50  50  50  86  86  86  86  86  86  86  86  86  86  86  86
  86 350 350 350 350 350 350 350 350 350 434 434 434 434 434 434 434 434
 434 434 434 434 434 434 434 434 434 434 350 350 350 350 350 350 350 350
 350 350 350 350 350 350 350 350]
tot grids = 43166
Drop grids 3290
    CPU time for setting up grids     44.69 sec, wall time      0.37 sec
nelec by numeric integration = 13.999939385272883
    CPU time for vxc     35.32 sec, wall time      0.28 sec
Even tempered Gaussians are generated as DF auxbasis for  H O Cl
  ETB auxbasis for H  [[0, [32.28416, 1]], [0, [16.14208, 1]], [0, [8.07104, 1]], [0, [4.03552, 1]], [0, [2.01776, 1]], [0, [1.00888, 1]], [0, [0.50444, 1]], [0, [0.25222, 1]], [0, [0.12611, 1]], [1, [8.571507550502421, 1]], [1, [4.2857537752512105, 1]], [1, [2.1428768876256052, 1]], [1, [1.0714384438128026, 1]], [1, [0.5357192219064013, 1]], [1, [0.26785961095320066, 1]], [2, [4.551504, 1]], [2, [2.275752, 1]], [2, [1.137876, 1]], [2, [0.568938, 1]]]
  ETB auxbasis for O  [[0, [64.177152, 1]], [0, [32.088576, 1]], [0, [16.044288, 1]], [0, [8.022144, 1]], [0, [4.011072, 1]], [0, [2.005536, 1]], [0, [1.002768, 1]], [0, [0.501384, 1]], [0, [0.250692, 1]], [1, [52.41108427692326, 1]], [1, [26.20554213846163, 1]], [1, [13.102771069230815, 1]], [1, [6.551385534615408, 1]], [1, [3.275692767307704, 1]], [1, [1.637846383653852, 1]], [1, [0.818923191826926, 1]], [1, [0.409461595913463, 1]], [1, [0.2047307979567315, 1]], [2, [42.802176, 1]], [2, [21.401088, 1]], [2, [10.700544, 1]], [2, [5.350272, 1]], [2, [2.675136, 1]], [2, [1.337568, 1]], [2, [0.668784, 1]], [2, [0.334392, 1]], [2, [0.167196, 1]], [3, [12.491732442583295, 1]], [3, [6.245866221291648, 1]], [3, [3.122933110645824, 1]], [3, [1.561466555322912, 1]], [3, [0.780733277661456, 1]], [3, [0.390366638830728, 1]], [4, [7.291376, 1]], [4, [3.645688, 1]], [4, [1.822844, 1]], [4, [0.911422, 1]]]
  ETB auxbasis for Cl  [[0, [24.721664, 1]], [0, [12.360832, 1]], [0, [6.180416, 1]], [0, [3.090208, 1]], [0, [1.545104, 1]], [0, [0.772552, 1]], [0, [0.386276, 1]], [0, [0.193138, 1]], [1, [20.012230625632515, 1]], [1, [10.006115312816258, 1]], [1, [5.003057656408129, 1]], [1, [2.5015288282040644, 1]], [1, [1.2507644141020322, 1]], [1, [0.6253822070510161, 1]], [1, [0.31269110352550805, 1]], [1, [0.15634555176275403, 1]], [2, [8.099968, 1]], [2, [4.049984, 1]], [2, [2.024992, 1]], [2, [1.012496, 1]], [2, [0.506248, 1]], [2, [0.253124, 1]], [2, [0.126562, 1]], [3, [4.236726694834115, 1]], [3, [2.1183633474170573, 1]], [3, [1.0591816737085287, 1]], [3, [0.5295908368542643, 1]], [3, [0.26479541842713217, 1]], [4, [4.43208, 1]], [4, [2.21604, 1]], [4, [1.10802, 1]], [4, [0.55401, 1]]]
num shells = 88, num cGTOs = 344
    CPU time for df-vj     33.38 sec, wall time      0.26 sec
E1 = -87.13666209684298  Ecoul = 43.97799260341332  Exc = -6.440906958430307
init E= -31.4012994556725
cond(S) = 17658.121058624478
    CPU time for initialize scf    258.77 sec, wall time      2.20 sec
  HOMO = -0.28366682947011  LUMO = -0.136569877525728
  mo_energy =
[-1.05349524e+00 -7.62237086e-01 -5.38242065e-01 -4.67675783e-01
 -4.29536983e-01 -2.99403745e-01 -2.83666829e-01 -1.36569878e-01
 -2.75295703e-03  2.04649898e-01  2.16271410e-01  2.28489791e-01
  2.55050506e-01  2.68413181e-01  2.70669933e-01  3.01832053e-01
  3.05594491e-01  3.39877851e-01  4.04305684e-01  4.29914625e-01
  4.43376451e-01  4.91516927e-01  6.08777236e-01  6.74917269e-01
  7.99769450e-01  8.80268428e-01  1.00715360e+00  1.06969282e+00
  1.10044302e+00  1.14544450e+00  1.15590132e+00  1.21640137e+00
  1.24793611e+00  1.25353581e+00  1.28980348e+00  1.30443527e+00
  1.30945466e+00  1.36397107e+00  1.37903271e+00  1.41905529e+00
  1.53146676e+00  1.56839250e+00  1.65477421e+00  1.70094947e+00
  1.86356269e+00  1.89647980e+00  2.00076392e+00  2.11095640e+00
  2.16342140e+00  2.27378617e+00  2.28358981e+00  2.36162048e+00
  2.40530418e+00  2.52741399e+00  2.58369736e+00  2.63896786e+00
  2.73495186e+00  2.95770697e+00  2.99157425e+00  3.04824608e+00
  3.16860495e+00  3.19611424e+00  3.31541530e+00  3.50604408e+00
  3.51779865e+00  3.52151961e+00  3.53500471e+00  3.59446865e+00
  3.65861151e+00  3.66510066e+00  3.80078227e+00  3.81099860e+00
  3.88346796e+00  3.88538463e+00  3.91353400e+00  3.91951490e+00
  3.95776625e+00  4.02664241e+00  4.04701969e+00  4.05861554e+00
  4.06245448e+00  4.21642790e+00  4.34866730e+00  4.39431838e+00
  4.52917048e+00  4.56661401e+00  4.57359042e+00  4.66664066e+00
  4.74823271e+00  4.80258030e+00  4.83607938e+00  5.24861078e+00
  5.72176860e+00  5.84106617e+00  6.05416218e+00  6.28142356e+00
  6.43436581e+00  6.47053041e+00  6.65619160e+00  6.79510890e+00
  7.20482742e+00  7.37594426e+00  7.41634588e+00  7.54525207e+00
  7.56450376e+00  7.69236812e+00  7.86615962e+00  7.98856414e+00
  8.26842902e+00  8.38913749e+00  8.47227666e+00  8.57017806e+00
  8.73787652e+00  8.78826816e+00  8.95477166e+00  9.61964881e+00
  9.68378011e+00  1.01632499e+01  1.03957461e+01  1.05349470e+01
  1.08529900e+01  1.08756882e+01  1.09444306e+01  1.11975543e+01
  1.13397268e+01  1.14365592e+01  1.14639030e+01  1.16479219e+01
  1.17464062e+01  1.20970453e+01  1.23652708e+01  1.24684457e+01
  1.33026916e+01  1.38610753e+01  1.39325535e+01  1.59185874e+01
  1.72660029e+01  3.19757669e+01]
nelec by numeric integration = 14.000000058927037
    CPU time for vxc     29.63 sec, wall time      0.23 sec
    CPU time for df-vj      5.60 sec, wall time      0.04 sec
E1 = -88.52451514047853  Ecoul = 45.745493869589964  Exc = -6.742856923894488
cycle= 1 E= -31.3236011985956  delta_E= 0.0777  |g|= 0.666  |ddm|=  3.3
    CPU time for cycle= 1     51.98 sec, wall time      0.43 sec
  HOMO = -0.126134026287951  LUMO = -0.052950430115951
  mo_energy =
[-0.89597487 -0.71159702 -0.42318737 -0.34963201 -0.3444353  -0.22079378
 -0.12613403 -0.05295043  0.04147808  0.23654816  0.24112796  0.26333306
  0.26645668  0.29599281  0.29909685  0.3169867   0.34450082  0.34890852
  0.41640475  0.4463573   0.49079045  0.51844954  0.63745731  0.68206179
  0.8984604   0.92280564  1.04765946  1.13335493  1.15973681  1.18800739
  1.2148911   1.22510561  1.24401682  1.2515305   1.27416061  1.30351572
  1.30551672  1.39606036  1.42654741  1.47382821  1.57811806  1.67462338
  1.69829519  1.7711172   1.94143238  1.96101505  2.03793716  2.17912312
  2.17941668  2.27269223  2.36402603  2.36645065  2.44261895  2.58384523
  2.58509313  2.68323857  2.74825352  3.04870112  3.07789662  3.12772807
  3.24097509  3.27571612  3.35750473  3.51288126  3.51571057  3.52053721
  3.52357737  3.59909081  3.79719586  3.82974622  3.87163478  3.87762789
  3.87954783  3.88858529  3.94888038  3.97536622  4.02788175  4.07964511
  4.08208923  4.19826991  4.21590166  4.29667292  4.44467048  4.49181367
  4.52103277  4.54637875  4.55463323  4.7403737   4.82279447  4.86397333
  4.88200828  5.37291715  5.75227513  5.85949831  6.11461104  6.54373052
  6.5732237   6.60205748  6.79105503  6.96462143  7.31538442  7.4381362
  7.49402184  7.59809646  7.62864007  7.68416518  7.93474113  8.10273034
  8.39998381  8.624086    8.69648247  8.78295496  8.86860851  8.87577293
  9.10135469  9.82258903  9.88349481 10.44231719 10.66288097 10.76591711
 10.82316577 10.87075908 11.0944835  11.41625916 11.54528475 11.69208066
 11.76442235 11.9705097  12.08422813 12.41065782 12.76984136 12.86011041
 13.5969214  14.19059063 14.25245641 16.19154038 17.22151191 32.48316089]
nelec by numeric integration = 14.000001276179137
    CPU time for vxc     31.02 sec, wall time      0.25 sec
    CPU time for df-vj      4.40 sec, wall time      0.03 sec
E1 = -84.95395183109913  Ecoul = 42.05472427860758  Exc = -6.161664437537879
cycle= 2 E= -30.862614993842  delta_E= 0.461  |g|= 1.58  |ddm|= 2.18
    CPU time for cycle= 2    108.86 sec, wall time      0.86 sec
  HOMO = -0.23697899098439  LUMO = -0.115419416113304
  mo_energy =
[-1.01171517e+00 -7.36554460e-01 -4.96657149e-01 -4.10973139e-01
 -3.68759677e-01 -2.69570330e-01 -2.36978991e-01 -1.15419416e-01
 -3.30202879e-03  2.21297367e-01  2.30835747e-01  2.36433108e-01
  2.79031006e-01  2.79916444e-01  2.92867364e-01  3.15111472e-01
  3.16480681e-01  3.48633104e-01  4.17544165e-01  4.46164533e-01
  4.59426312e-01  4.91335971e-01  6.22226854e-01  6.73400642e-01
  8.32057275e-01  8.75752549e-01  1.00936032e+00  1.09118420e+00
  1.12409861e+00  1.16013955e+00  1.17909828e+00  1.22717128e+00
  1.26778574e+00  1.27653805e+00  1.30539849e+00  1.32686356e+00
  1.33178860e+00  1.39188177e+00  1.39604668e+00  1.43597286e+00
  1.54651366e+00  1.61206158e+00  1.67125342e+00  1.72584377e+00
  1.88491675e+00  1.90390433e+00  1.99672437e+00  2.11337668e+00
  2.14095032e+00  2.28066098e+00  2.29834928e+00  2.38648833e+00
  2.39350662e+00  2.52427173e+00  2.58408478e+00  2.64116706e+00
  2.75073850e+00  2.96864187e+00  3.01204734e+00  3.06561187e+00
  3.18940685e+00  3.21065073e+00  3.32899383e+00  3.52671696e+00
  3.54625084e+00  3.55571074e+00  3.56150273e+00  3.60548368e+00
  3.70120967e+00  3.72947850e+00  3.83219033e+00  3.84041198e+00
  3.91809023e+00  3.92156721e+00  3.94879753e+00  3.94977280e+00
  3.99206664e+00  4.05296630e+00  4.05946523e+00  4.09472758e+00
  4.10688400e+00  4.24115443e+00  4.38377512e+00  4.41195358e+00
  4.55641406e+00  4.59342613e+00  4.60013057e+00  4.69588230e+00
  4.78032358e+00  4.80834069e+00  4.85366590e+00  5.27553102e+00
  5.70131047e+00  5.80799911e+00  6.05365106e+00  6.36292655e+00
  6.45929931e+00  6.47292709e+00  6.66523504e+00  6.82525677e+00
  7.21160988e+00  7.35982042e+00  7.39063338e+00  7.53043009e+00
  7.53229787e+00  7.64183716e+00  7.86112526e+00  7.98014379e+00
  8.27930694e+00  8.44900380e+00  8.52651474e+00  8.62179911e+00
  8.75526943e+00  8.77544772e+00  8.96021469e+00  9.66179694e+00
  9.72445060e+00  1.02404338e+01  1.04714919e+01  1.05904650e+01
  1.08789655e+01  1.08956864e+01  1.09712513e+01  1.12980799e+01
  1.14152967e+01  1.15027829e+01  1.15266302e+01  1.17340136e+01
  1.18414235e+01  1.21725238e+01  1.24826384e+01  1.25817190e+01
  1.33705814e+01  1.39503665e+01  1.40117713e+01  1.59809781e+01
  1.72871314e+01  3.21256442e+01]
nelec by numeric integration = 14.000000277309033
    CPU time for vxc     39.28 sec, wall time      0.31 sec
    CPU time for df-vj      9.08 sec, wall time      0.07 sec
E1 = -87.64335056760778  Ecoul = 44.58638365892266  Exc = -6.543203666242962
cycle= 3 E= -31.4018935787407  delta_E= -0.539  |g|= 0.102  |ddm|= 1.64
    CPU time for cycle= 3    137.33 sec, wall time      1.08 sec
  HOMO = -0.244690480003758  LUMO = -0.121501395918645
  mo_energy =
[-9.99080183e-01 -7.46082530e-01 -4.95652474e-01 -4.10379291e-01
 -3.68099278e-01 -2.82387371e-01 -2.44690480e-01 -1.21501396e-01
  4.39985346e-03  2.25115671e-01  2.31266632e-01  2.37792065e-01
  2.71941080e-01  2.77291360e-01  2.86598741e-01  3.08420059e-01
  3.08854294e-01  3.41241992e-01  4.12087716e-01  4.39129130e-01
  4.55772399e-01  4.97645395e-01  6.18834581e-01  6.74330227e-01
  8.35127205e-01  8.84929338e-01  1.01817142e+00  1.09351460e+00
  1.12581891e+00  1.16173714e+00  1.17847474e+00  1.22075863e+00
  1.25828192e+00  1.26614903e+00  1.29295849e+00  1.31361552e+00
  1.31695355e+00  1.38744963e+00  1.38880125e+00  1.43528092e+00
  1.54531722e+00  1.61441148e+00  1.66157694e+00  1.72297882e+00
  1.88784295e+00  1.91108582e+00  2.00527775e+00  2.12402235e+00
  2.15617885e+00  2.28217412e+00  2.29824333e+00  2.37263459e+00
  2.40393123e+00  2.53898080e+00  2.58194253e+00  2.64818219e+00
  2.73923321e+00  2.97919185e+00  3.01723497e+00  3.07085569e+00
  3.19212597e+00  3.21720447e+00  3.32545367e+00  3.51687813e+00
  3.53231109e+00  3.54022102e+00  3.54692449e+00  3.60032923e+00
  3.70506705e+00  3.73411389e+00  3.82943391e+00  3.83254890e+00
  3.90016951e+00  3.90703307e+00  3.93765866e+00  3.94783448e+00
  3.98494946e+00  4.04307793e+00  4.05259552e+00  4.09004569e+00
  4.10080937e+00  4.23406194e+00  4.39504188e+00  4.40898924e+00
  4.53566067e+00  4.57252280e+00  4.57915171e+00  4.69321563e+00
  4.77548904e+00  4.80198942e+00  4.84757655e+00  5.28324580e+00
  5.71746102e+00  5.83004173e+00  6.06076247e+00  6.36999422e+00
  6.48065890e+00  6.48628979e+00  6.68120640e+00  6.83924722e+00
  7.23208138e+00  7.38023511e+00  7.40983853e+00  7.55068936e+00
  7.55477999e+00  7.66744598e+00  7.88192296e+00  7.99932019e+00
  8.29744429e+00  8.46328270e+00  8.54101425e+00  8.63439958e+00
  8.77278619e+00  8.79720697e+00  8.97743690e+00  9.67718070e+00
  9.73977566e+00  1.02477708e+01  1.04805184e+01  1.06002600e+01
  1.08552306e+01  1.08854688e+01  1.09778646e+01  1.13053131e+01
  1.14090598e+01  1.14924545e+01  1.15328327e+01  1.17405275e+01
  1.18499665e+01  1.21819982e+01  1.24864197e+01  1.25851581e+01
  1.33817380e+01  1.39578733e+01  1.40199695e+01  1.59924000e+01
  1.72622933e+01  3.21215473e+01]
nelec by numeric integration = 14.000000340216825
    CPU time for vxc     42.85 sec, wall time      0.34 sec
    CPU time for df-vj      9.07 sec, wall time      0.07 sec
E1 = -87.57334850916357  Ecoul = 44.519747025671506  Exc = -6.549027651750353
cycle= 4 E= -31.404352139055  delta_E= -0.00246  |g|= 0.0518  |ddm|= 0.257
    CPU time for cycle= 4     87.59 sec, wall time      0.70 sec
  HOMO = -0.242988122112397  LUMO = -0.119232369946834
  mo_energy =
[-1.00193678e+00 -7.42745860e-01 -4.95051647e-01 -4.10052158e-01
 -3.68394397e-01 -2.79014437e-01 -2.42988122e-01 -1.19232370e-01
  1.77274975e-03  2.24872430e-01  2.31463078e-01  2.37241243e-01
  2.74239496e-01  2.78050583e-01  2.87975831e-01  3.10311958e-01
  3.10630887e-01  3.43588074e-01  4.13477768e-01  4.41126376e-01
  4.56909224e-01  4.95564410e-01  6.20029994e-01  6.74269128e-01
  8.34437364e-01  8.82096966e-01  1.01637163e+00  1.09371284e+00
  1.12578330e+00  1.16206583e+00  1.17946131e+00  1.22344694e+00
  1.26029772e+00  1.26817744e+00  1.29643839e+00  1.31690341e+00
  1.32080810e+00  1.38993920e+00  1.39019546e+00  1.43601660e+00
  1.54590119e+00  1.61400309e+00  1.66523596e+00  1.72451315e+00
  1.88734673e+00  1.90946105e+00  2.00274229e+00  2.12100186e+00
  2.15210605e+00  2.28336972e+00  2.29705050e+00  2.37620920e+00
  2.40093033e+00  2.53521706e+00  2.58264205e+00  2.64740037e+00
  2.74313116e+00  2.97689923e+00  3.01696758e+00  3.07016227e+00
  3.19244802e+00  3.21653799e+00  3.32706218e+00  3.51992112e+00
  3.53590658e+00  3.54338791e+00  3.54980193e+00  3.60147695e+00
  3.70485431e+00  3.73338850e+00  3.83031261e+00  3.83582194e+00
  3.90445479e+00  3.91069792e+00  3.94094186e+00  3.94861414e+00
  3.98739787e+00  4.04694068e+00  4.05502470e+00  4.09177066e+00
  4.10297017e+00  4.23676275e+00  4.39267203e+00  4.41113262e+00
  4.54207430e+00  4.57818462e+00  4.58450590e+00  4.69474619e+00
  4.77755985e+00  4.80463066e+00  4.85034840e+00  5.28172467e+00
  5.71389435e+00  5.82468102e+00  6.05959469e+00  6.36699402e+00
  6.47587289e+00  6.48287245e+00  6.67730452e+00  6.83556709e+00
  7.22702663e+00  7.37464098e+00  7.40423088e+00  7.54492787e+00
  7.54970613e+00  7.66123315e+00  7.87685419e+00  7.99494437e+00
  8.29330436e+00  8.46053243e+00  8.53814810e+00  8.63207909e+00
  8.76916195e+00  8.79208116e+00  8.97354537e+00  9.67409252e+00
  9.73670629e+00  1.02458851e+01  1.04783808e+01  1.05981439e+01
  1.08619066e+01  1.08896306e+01  1.09759273e+01  1.13030864e+01
  1.14117289e+01  1.14952799e+01  1.15306727e+01  1.17384391e+01
  1.18473878e+01  1.21790651e+01  1.24835833e+01  1.25824870e+01
  1.33781756e+01  1.39550332e+01  1.40168266e+01  1.59890169e+01
  1.72694574e+01  3.21183119e+01]
nelec by numeric integration = 14.000000318963899
    CPU time for vxc     31.68 sec, wall time      0.25 sec
    CPU time for df-vj      7.05 sec, wall time      0.05 sec
E1 = -87.61514166097153  Ecoul = 44.561868136233564  Exc = -6.55019217113858
cycle= 5 E= -31.4051886996891  delta_E= -0.000837  |g|= 0.00676  |ddm|= 0.0805
    CPU time for cycle= 5     99.20 sec, wall time      0.78 sec
  HOMO = -0.242424439155803  LUMO = -0.118822926436032
  mo_energy =
[-1.00135006e+00 -7.42237168e-01 -4.94636294e-01 -4.09557031e-01
 -3.67779715e-01 -2.78450016e-01 -2.42424439e-01 -1.18822926e-01
  1.95719040e-03  2.25001148e-01  2.31607889e-01  2.37300060e-01
  2.74647356e-01  2.78475142e-01  2.88307676e-01  3.10714913e-01
  3.10975787e-01  3.43727909e-01  4.13820816e-01  4.41336278e-01
  4.57186713e-01  4.95669134e-01  6.20283519e-01  6.74419834e-01
  8.34655605e-01  8.82189364e-01  1.01640345e+00  1.09398493e+00
  1.12602820e+00  1.16241299e+00  1.17966227e+00  1.22371193e+00
  1.26076589e+00  1.26866996e+00  1.29703459e+00  1.31749278e+00
  1.32137151e+00  1.39021686e+00  1.39067806e+00  1.43631654e+00
  1.54615450e+00  1.61431894e+00  1.66537364e+00  1.72469703e+00
  1.88759625e+00  1.90977419e+00  2.00296913e+00  2.12134726e+00
  2.15205331e+00  2.28357338e+00  2.29737831e+00  2.37682054e+00
  2.40102475e+00  2.53523176e+00  2.58323611e+00  2.64742627e+00
  2.74334192e+00  2.97713088e+00  3.01744987e+00  3.07050094e+00
  3.19277908e+00  3.21694939e+00  3.32764165e+00  3.52041284e+00
  3.53648508e+00  3.54405317e+00  3.55053729e+00  3.60227970e+00
  3.70515292e+00  3.73382633e+00  3.83103811e+00  3.83618762e+00
  3.90525383e+00  3.91147247e+00  3.94162077e+00  3.94915219e+00
  3.98791854e+00  4.04727736e+00  4.05566877e+00  4.09224826e+00
  4.10344902e+00  4.23722589e+00  4.39286894e+00  4.41133208e+00
  4.54258320e+00  4.57895749e+00  4.58535878e+00  4.69515370e+00
  4.77787658e+00  4.80512804e+00  4.85083623e+00  5.28204851e+00
  5.71412394e+00  5.82469342e+00  6.06001948e+00  6.36761699e+00
  6.47589782e+00  6.48316076e+00  6.67752950e+00  6.83588486e+00
  7.22713908e+00  7.37465937e+00  7.40427561e+00  7.54494359e+00
  7.54965206e+00  7.66109625e+00  7.87691262e+00  7.99507677e+00
  8.29343456e+00  8.46102109e+00  8.53862175e+00  8.63249390e+00
  8.76939834e+00  8.79208392e+00  8.97379046e+00  9.67440346e+00
  9.73703389e+00  1.02464866e+01  1.04788854e+01  1.05986712e+01
  1.08628624e+01  1.08903579e+01  1.09762943e+01  1.13038127e+01
  1.14124901e+01  1.14959512e+01  1.15313791e+01  1.17390684e+01
  1.18480111e+01  1.21797005e+01  1.24844634e+01  1.25833576e+01
  1.33786948e+01  1.39557056e+01  1.40174751e+01  1.59895007e+01
  1.72704748e+01  3.21196008e+01]
nelec by numeric integration = 14.000000322173504
    CPU time for vxc     41.49 sec, wall time      0.34 sec
    CPU time for df-vj      7.94 sec, wall time      0.06 sec
E1 = -87.60293274612005  Ecoul = 44.54775734280272  Exc = -6.5483017754226
cycle= 6 E= -31.4052001825525  delta_E= -1.15e-05  |g|= 0.00197  |ddm|= 0.0137
    CPU time for cycle= 6    107.23 sec, wall time      0.85 sec
  HOMO = -0.242680164889767  LUMO = -0.119133940308917
  mo_energy =
[-1.00161964e+00 -7.42570529e-01 -4.94901945e-01 -4.09785542e-01
 -3.68017346e-01 -2.78742456e-01 -2.42680165e-01 -1.19133940e-01
  1.86887230e-03  2.24904230e-01  2.31469677e-01  2.37248882e-01
  2.74381707e-01  2.78282521e-01  2.88132717e-01  3.10484801e-01
  3.10762025e-01  3.43547127e-01  4.13635227e-01  4.41168155e-01
  4.57011788e-01  4.95574172e-01  6.20075221e-01  6.74271441e-01
  8.34546170e-01  8.82094796e-01  1.01631508e+00  1.09379286e+00
  1.12587521e+00  1.16220157e+00  1.17950996e+00  1.22345731e+00
  1.26054947e+00  1.26846051e+00  1.29669308e+00  1.31719251e+00
  1.32106325e+00  1.39004536e+00  1.39037753e+00  1.43612308e+00
  1.54596853e+00  1.61416814e+00  1.66514847e+00  1.72453543e+00
  1.88742851e+00  1.90957867e+00  2.00283040e+00  2.12117097e+00
  2.15199764e+00  2.28338463e+00  2.29719683e+00  2.37648884e+00
  2.40092718e+00  2.53514682e+00  2.58291384e+00  2.64730133e+00
  2.74305568e+00  2.97695963e+00  3.01716088e+00  3.07028229e+00
  3.19255665e+00  3.21669529e+00  3.32728612e+00  3.52012127e+00
  3.53619026e+00  3.54377934e+00  3.55022443e+00  3.60191307e+00
  3.70496223e+00  3.73363571e+00  3.83070455e+00  3.83588766e+00
  3.90488198e+00  3.91111102e+00  3.94124975e+00  3.94887677e+00
  3.98760988e+00  4.04696352e+00  4.05528484e+00  4.09196447e+00
  4.10317680e+00  4.23689304e+00  4.39273565e+00  4.41107843e+00
  4.54217655e+00  4.57852190e+00  4.58491060e+00  4.69489270e+00
  4.77761252e+00  4.80475749e+00  4.85048545e+00  5.28186283e+00
  5.71394301e+00  5.82461648e+00  6.05974644e+00  6.36745059e+00
  6.47580084e+00  6.48304413e+00  6.67740123e+00  6.83573438e+00
  7.22701543e+00  7.37459473e+00  7.40421189e+00  7.54487458e+00
  7.54956747e+00  7.66105924e+00  7.87683164e+00  7.99495775e+00
  8.29331244e+00  8.46080455e+00  8.53840218e+00  8.63230065e+00
  8.76924227e+00  8.79200291e+00  8.97363182e+00  9.67424162e+00
  9.73685458e+00  1.02463002e+01  1.04787132e+01  1.05984700e+01
  1.08623124e+01  1.08899108e+01  1.09760459e+01  1.13035908e+01
  1.14120707e+01  1.14955514e+01  1.15311582e+01  1.17388760e+01
  1.18478011e+01  1.21794746e+01  1.24842696e+01  1.25831443e+01
  1.33785023e+01  1.39555201e+01  1.40172861e+01  1.59893265e+01
  1.72698687e+01  3.21193677e+01]
nelec by numeric integration = 14.000000322092886
    CPU time for vxc     30.56 sec, wall time      0.24 sec
    CPU time for df-vj      8.05 sec, wall time      0.06 sec
E1 = -87.60517544360277  Ecoul = 44.55044838659728  Exc = -6.5487512933975776
cycle= 7 E= -31.4052013542157  delta_E= -1.17e-06  |g|= 0.000177  |ddm|= 0.00515
    CPU time for cycle= 7    101.15 sec, wall time      0.80 sec
  HOMO = -0.242664583182862  LUMO = -0.119116331541487
  mo_energy =
[-1.00160712e+00 -7.42551760e-01 -4.94893003e-01 -4.09785424e-01
 -3.68007608e-01 -2.78727845e-01 -2.42664583e-01 -1.19116332e-01
  1.87048478e-03  2.24903098e-01  2.31478394e-01  2.37239296e-01
  2.74395374e-01  2.78293964e-01  2.88138902e-01  3.10493236e-01
  3.10771950e-01  3.43561045e-01  4.13641314e-01  4.41179208e-01
  4.57017062e-01  4.95574139e-01  6.20085425e-01  6.74277405e-01
  8.34540507e-01  8.82097323e-01  1.01631679e+00  1.09379716e+00
  1.12587301e+00  1.16220464e+00  1.17950894e+00  1.22346748e+00
  1.26056345e+00  1.26847413e+00  1.29671101e+00  1.31720828e+00
  1.32107931e+00  1.39004856e+00  1.39038682e+00  1.43612572e+00
  1.54597394e+00  1.61417067e+00  1.66516265e+00  1.72453501e+00
  1.88743742e+00  1.90958629e+00  2.00283512e+00  2.12117320e+00
  2.15200160e+00  2.28339768e+00  2.29720261e+00  2.37650682e+00
  2.40092542e+00  2.53514774e+00  2.58292551e+00  2.64730448e+00
  2.74307527e+00  2.97696402e+00  3.01716751e+00  3.07028519e+00
  3.19255646e+00  3.21669652e+00  3.32729838e+00  3.52013240e+00
  3.53620495e+00  3.54379663e+00  3.55024459e+00  3.60192458e+00
  3.70496487e+00  3.73363220e+00  3.83071337e+00  3.83590024e+00
  3.90490232e+00  3.91113049e+00  3.94126653e+00  3.94888220e+00
  3.98762228e+00  4.04698068e+00  4.05530004e+00  4.09197126e+00
  4.10318206e+00  4.23690544e+00  4.39273452e+00  4.41109268e+00
  4.54220217e+00  4.57854660e+00  4.58493705e+00  4.69489540e+00
  4.77762696e+00  4.80477387e+00  4.85049625e+00  5.28186560e+00
  5.71395134e+00  5.82462347e+00  6.05975387e+00  6.36746427e+00
  6.47580561e+00  6.48304469e+00  6.67740571e+00  6.83574331e+00
  7.22703106e+00  7.37460540e+00  7.40422277e+00  7.54488272e+00
  7.54957562e+00  7.66106844e+00  7.87683930e+00  7.99496443e+00
  8.29331549e+00  8.46080576e+00  8.53840584e+00  8.63229782e+00
  8.76924500e+00  8.79201147e+00  8.97363759e+00  9.67424117e+00
  9.73685619e+00  1.02462955e+01  1.04787109e+01  1.05984669e+01
  1.08623434e+01  1.08899371e+01  1.09760653e+01  1.13035975e+01
  1.14120935e+01  1.14955720e+01  1.15311680e+01  1.17388796e+01
  1.18478153e+01  1.21794852e+01  1.24842848e+01  1.25831606e+01
  1.33785218e+01  1.39555336e+01  1.40172966e+01  1.59893399e+01
  1.72699003e+01  3.21194044e+01]
nelec by numeric integration = 14.00000032201689
    CPU time for vxc     36.42 sec, wall time      0.29 sec
    CPU time for df-vj      8.00 sec, wall time      0.06 sec
E1 = -87.60506826185117  Ecoul = 44.55030408838828  Exc = -6.54871418425723
cycle= 8 E= -31.4052013615327  delta_E= -7.32e-09  |g|= 1.7e-05  |ddm|= 0.000322
    CPU time for cycle= 8    105.92 sec, wall time      0.83 sec
  HOMO = -0.242665782482785  LUMO = -0.119116814499109
  mo_energy =
[-1.00160667e+00 -7.42552993e-01 -4.94892761e-01 -4.09784901e-01
 -3.68007730e-01 -2.78729158e-01 -2.42665782e-01 -1.19116814e-01
  1.87060661e-03  2.24903682e-01  2.31477930e-01  2.37240545e-01
  2.74394331e-01  2.78292930e-01  2.88138618e-01  3.10492778e-01
  3.10771146e-01  3.43560015e-01  4.13640868e-01  4.41178272e-01
  4.57016831e-01  4.95574440e-01  6.20085218e-01  6.74277133e-01
  8.34541649e-01  8.82097168e-01  1.01631721e+00  1.09379739e+00
  1.12587386e+00  1.16220484e+00  1.17950950e+00  1.22346712e+00
  1.26056169e+00  1.26847226e+00  1.29670984e+00  1.31720709e+00
  1.32107818e+00  1.39004842e+00  1.39038671e+00  1.43612597e+00
  1.54597396e+00  1.61417105e+00  1.66516141e+00  1.72453525e+00
  1.88743719e+00  1.90958664e+00  2.00283534e+00  2.12117401e+00
  2.15200193e+00  2.28339712e+00  2.29720272e+00  2.37650571e+00
  2.40092613e+00  2.53514798e+00  2.58292502e+00  2.64730486e+00
  2.74307401e+00  2.97696447e+00  3.01716840e+00  3.07028594e+00
  3.19255752e+00  3.21669779e+00  3.32729854e+00  3.52013177e+00
  3.53620356e+00  3.54379448e+00  3.55024220e+00  3.60192402e+00
  3.70496545e+00  3.73363350e+00  3.83071337e+00  3.83589952e+00
  3.90490073e+00  3.91112914e+00  3.94126584e+00  3.94888279e+00
  3.98762194e+00  4.04697991e+00  4.05529986e+00  4.09197127e+00
  4.10318217e+00  4.23690540e+00  4.39273538e+00  4.41109231e+00
  4.54220050e+00  4.57854517e+00  4.58493553e+00  4.69489578e+00
  4.77762627e+00  4.80477361e+00  4.85049649e+00  5.28186615e+00
  5.71395190e+00  5.82462394e+00  6.05975483e+00  6.36746406e+00
  6.47580582e+00  6.48304529e+00  6.67740610e+00  6.83574344e+00
  7.22703024e+00  7.37460550e+00  7.40422285e+00  7.54488312e+00
  7.54957532e+00  7.66106876e+00  7.87683944e+00  7.99496463e+00
  8.29331593e+00  8.46080697e+00  8.53840682e+00  8.63229943e+00
  8.76924604e+00  8.79201164e+00  8.97363845e+00  9.67424215e+00
  9.73685709e+00  1.02462966e+01  1.04787119e+01  1.05984682e+01
  1.08623424e+01  1.08899362e+01  1.09760646e+01  1.13035979e+01
  1.14120931e+01  1.14955716e+01  1.15311683e+01  1.17388800e+01
  1.18478148e+01  1.21794855e+01  1.24842843e+01  1.25831599e+01
  1.33785210e+01  1.39555330e+01  1.40172965e+01  1.59893393e+01
  1.72698997e+01  3.21194023e+01]
nelec by numeric integration = 14.000000322023675
    CPU time for vxc     36.81 sec, wall time      0.29 sec
    CPU time for df-vj      7.50 sec, wall time      0.06 sec
E1 = -87.60506260549384  Ecoul = 44.550300164536694  Exc = -6.548715916827396
cycle= 9 E= -31.4052013615971  delta_E= -6.44e-11  |g|= 5.72e-06  |ddm|= 2.62e-05
    CPU time for cycle= 9     95.43 sec, wall time      0.76 sec
  HOMO = -0.242666609431767  LUMO = -0.11911765448248
  mo_energy =
[-1.00160818e+00 -7.42553569e-01 -4.94893835e-01 -4.09785899e-01
 -3.68008879e-01 -2.78729729e-01 -2.42666609e-01 -1.19117654e-01
  1.87049414e-03  2.24903287e-01  2.31477814e-01  2.37239837e-01
  2.74394038e-01  2.78292549e-01  2.88137986e-01  3.10492332e-01
  3.10770703e-01  3.43559727e-01  4.13640718e-01  4.41178069e-01
  4.57016501e-01  4.95574297e-01  6.20084734e-01  6.74277118e-01
  8.34540944e-01  8.82096973e-01  1.01631688e+00  1.09379683e+00
  1.12587302e+00  1.16220434e+00  1.17950888e+00  1.22346668e+00
  1.26056139e+00  1.26847195e+00  1.29670942e+00  1.31720651e+00
  1.32107756e+00  1.39004794e+00  1.39038614e+00  1.43612530e+00
  1.54597349e+00  1.61417026e+00  1.66516128e+00  1.72453489e+00
  1.88743679e+00  1.90958609e+00  2.00283512e+00  2.12117346e+00
  2.15200200e+00  2.28339676e+00  2.29720206e+00  2.37650512e+00
  2.40092579e+00  2.53514773e+00  2.58292504e+00  2.64730427e+00
  2.74307380e+00  2.97696380e+00  3.01716730e+00  3.07028511e+00
  3.19255650e+00  3.21669665e+00  3.32729758e+00  3.52013100e+00
  3.53620293e+00  3.54379395e+00  3.55024187e+00  3.60192355e+00
  3.70496435e+00  3.73363200e+00  3.83071250e+00  3.83589913e+00
  3.90490008e+00  3.91112837e+00  3.94126498e+00  3.94888152e+00
  3.98762111e+00  4.04697922e+00  4.05529899e+00  4.09197055e+00
  4.10318143e+00  4.23690449e+00  4.39273447e+00  4.41109157e+00
  4.54220013e+00  4.57854457e+00  4.58493486e+00  4.69489516e+00
  4.77762561e+00  4.80477300e+00  4.85049574e+00  5.28186546e+00
  5.71395161e+00  5.82462407e+00  6.05975389e+00  6.36746255e+00
  6.47580561e+00  6.48304445e+00  6.67740552e+00  6.83574241e+00
  7.22702991e+00  7.37460543e+00  7.40422275e+00  7.54488313e+00
  7.54957518e+00  7.66106912e+00  7.87683931e+00  7.99496422e+00
  8.29331529e+00  8.46080558e+00  8.53840547e+00  8.63229784e+00
  8.76924508e+00  8.79201137e+00  8.97363744e+00  9.67424102e+00
  9.73685591e+00  1.02462949e+01  1.04787104e+01  1.05984666e+01
  1.08623416e+01  1.08899355e+01  1.09760639e+01  1.13035960e+01
  1.14120918e+01  1.14955704e+01  1.15311664e+01  1.17388783e+01
  1.18478131e+01  1.21794838e+01  1.24842824e+01  1.25831580e+01
  1.33785196e+01  1.39555314e+01  1.40172949e+01  1.59893380e+01
  1.72698987e+01  3.21193998e+01]
nelec by numeric integration = 14.000000322018488
    CPU time for vxc     37.32 sec, wall time      0.30 sec
    CPU time for df-vj      8.29 sec, wall time      0.07 sec
E1 = -87.6050877064926  Ecoul = 44.55032889892419  Exc = -6.5487195502020015
Extra cycle  E= -31.405201361583  delta_E= 1.41e-11  |g|= 9.82e-06  |ddm|= 2.03e-05
    CPU time for scf_cycle   1248.76 sec, wall time     10.04 sec
    CPU time for SCF   1249.18 sec, wall time     10.04 sec
converged SCF energy = -31.405201361583
