#INFO: **** input file is /home/nkousuke/lustre/toBeSync/turboRVB/05turbo-genius-development/turbogenius_paper/04data/sanity_checks/03pyscf_HF_turbo_VMC_via_trexio/00open_boundary/results/C2H4/pyscf-HF-workflow/run.py ****

from pyscf_wrapper import Pyscf_wrapper

# input variables
pyscf_chkfile="pyscf.chk"
structure_file="C2H4.xyz"

# input variables
omp_num_threads=128
charge=0
spin=0
basis="ccecp-ccpvqz"
ecp="ccecp"
scf_method="HF"
dft_xc="NA"
solver_newton=False
MP2_flag=False
CCSD_flag=False
pyscf_output="out.pyscf"
twist_average=False
exp_to_discard=0.0
kpt=[0.0, 0.0, 0.0]
kpt_grid=[1, 1, 1]
smearing_method="fermi"
smearing_sigma=0.0

pyscf_calc=Pyscf_wrapper(
                        structure_file=structure_file,
                        chkfile=pyscf_chkfile,
                        )

pyscf_calc.run_pyscf(
                  omp_num_threads=omp_num_threads,
                  charge=charge,
                  spin=spin,
                  basis=basis,
                  ecp=ecp,
                  scf_method=scf_method,
                  dft_xc=dft_xc,
                  solver_newton=solver_newton,
                  MP2_flag=MP2_flag,
                  CCSD_flag=CCSD_flag,
                  pyscf_output=pyscf_output,
                  twist_average=twist_average,
                  exp_to_discard=exp_to_discard,
                  kpt=kpt,
                  kpt_grid=kpt_grid,
                  smearing_method=smearing_method,
                  smearing_sigma=smearing_sigma
                  )
                #INFO: ******************** input file end ********************


System: uname_result(system='Linux', node='spcc-200', release='5.4.0-66-generic', version='#74-Ubuntu SMP Wed Jan 27 22:54:38 UTC 2021', machine='x86_64', processor='x86_64')  Threads 128
Python 3.7.3 (default, Mar 27 2019, 22:11:17) 
[GCC 7.3.0]
numpy 1.20.1  scipy 1.7.3
Date: Mon Dec 19 18:08:16 2022
PySCF version 2.0.1
PySCF path  /home/nkousuke/application/anaconda3/lib/python3.7/site-packages/pyscf

[CONFIG] conf_file /home/nkousuke/.pyscf_conf.py
[INPUT] verbose = 5
[INPUT] max_memory = 507506.88671875 
[INPUT] num. atoms = 6
[INPUT] num. electrons = 12
[INPUT] charge = 0
[INPUT] spin (= nelec alpha-beta = 2S) = 0
[INPUT] symmetry False subgroup None
[INPUT] Mole.unit = A
[INPUT]  1 C      0.000000000000   0.000000000000   0.665400000000 AA    0.000000000000   0.000000000000   1.257423763286 Bohr
[INPUT]  2 C      0.000000000000   0.000000000000  -0.665400000000 AA    0.000000000000   0.000000000000  -1.257423763286 Bohr
[INPUT]  3 H      0.000000000000   0.942096000000   1.194080000000 AA    0.000000000000   1.780303423048   2.256484170821 Bohr
[INPUT]  4 H      0.000000000000  -0.942096000000   1.194080000000 AA    0.000000000000  -1.780303423048   2.256484170821 Bohr
[INPUT]  5 H      0.000000000000   0.942096000000  -1.194080000000 AA    0.000000000000   1.780303423048  -2.256484170821 Bohr
[INPUT]  6 H      0.000000000000  -0.942096000000  -1.194080000000 AA    0.000000000000  -1.780303423048  -2.256484170821 Bohr
[INPUT] ---------------- BASIS SET ---------------- 
[INPUT] l, kappa, [nprim/nctr], expnt,             c_1 c_2 ...
[INPUT] H
[INPUT] 0    0    [8    /1   ]  23.843185         0.0041149
                                10.212443         0.0104644
                                4.374164          0.0280111
                                1.873529          0.0758862
                                0.802465          0.1821062
                                0.343709          0.3485214
                                0.147217          0.3782313
                                0.063055          0.1164241
[INPUT] 0    0    [1    /1   ]  0.081856             1
[INPUT] 0    0    [1    /1   ]  0.233254             1
[INPUT] 0    0    [1    /1   ]  0.664673             1
[INPUT] 1    0    [1    /1   ]  0.284469             1
[INPUT] 1    0    [1    /1   ]  0.847159             1
[INPUT] 1    0    [1    /1   ]  2.522868             1
[INPUT] 2    0    [1    /1   ]  0.665279             1
[INPUT] 2    0    [1    /1   ]  2.048739             1
[INPUT] 3    0    [1    /1   ]  1.42146              1
[INPUT] C
[INPUT] 0    0    [9    /1   ]  13.073594         0.0051583
                                6.541187          0.0603424
                                4.573411          -0.1978471
                                1.637494          -0.081034
                                0.819297          0.2321726
                                0.409924          0.2914643
                                0.2313            0.4336405
                                0.102619          0.213194
                                0.051344          0.0049848
[INPUT] 0    0    [1    /1   ]  0.846879             1
[INPUT] 0    0    [1    /1   ]  0.269659             1
[INPUT] 0    0    [1    /1   ]  0.109576             1
[INPUT] 1    0    [9    /1   ]  9.934169          0.0209076
                                3.886955          0.0572698
                                1.871016          0.1122682
                                0.935757          0.2130082
                                0.468003          0.2835815
                                0.239473          0.3011207
                                0.117063          0.2016934
                                0.058547          0.0453575
                                0.029281          0.0029775
[INPUT] 1    0    [1    /1   ]  0.804681             1
[INPUT] 1    0    [1    /1   ]  0.313254             1
[INPUT] 1    0    [1    /1   ]  0.105389             1
[INPUT] 2    0    [1    /1   ]  2.01376              1
[INPUT] 2    0    [1    /1   ]  0.684884             1
[INPUT] 2    0    [1    /1   ]  0.240171             1
[INPUT] 3    0    [1    /1   ]  0.457302             1
[INPUT] 3    0    [1    /1   ]  1.32493              1
[INPUT] 4    0    [1    /1   ]  1.03418              1

nuclear repulsion = 19.6142642390288
number of shells = 68
number of NR pGTOs = 320
number of NR cGTOs = 228
basis = ccecp-ccpvqz
ecp = ccecp
CPU time:         6.65


******** <class 'pyscf.scf.hf.RHF'> ********
method = RHF
initial guess = minao
damping factor = 0
level_shift factor = 0
DIIS = <class 'pyscf.scf.diis.CDIIS'>
diis_start_cycle = 1
diis_space = 8
SCF conv_tol = 1e-09
SCF conv_tol_grad = None
SCF max_cycles = 200
direct_scf = True
direct_scf_tol = 1e-13
chkfile to save SCF result = pyscf.chk
max_memory 507506 MB (current use 106 MB)
Set gradient conv threshold to 3.16228e-05
E1 = -56.28326110165646  E_coul = 23.65758420278361
init E= -13.0114126598441
cond(S) = 118621.77569725871
    CPU time for initialize scf    276.22 sec, wall time      2.53 sec
  HOMO = -0.335964420681165  LUMO = 0.00845591033032638
  mo_energy =
[-1.48236129e+00 -9.20075416e-01 -6.50173914e-01 -5.06825676e-01
 -4.20357049e-01 -3.35964421e-01  8.45591033e-03  9.09915821e-02
  1.21851077e-01  1.23583812e-01  1.83177239e-01  2.53896105e-01
  2.94936730e-01  3.15516877e-01  3.23899037e-01  3.36311459e-01
  3.90008871e-01  4.09262281e-01  4.13520377e-01  4.19662815e-01
  4.42126122e-01  4.77643794e-01  4.97084035e-01  5.82382635e-01
  6.22879019e-01  6.76180952e-01  6.76883928e-01  7.40366852e-01
  7.46065676e-01  7.99790951e-01  8.46107520e-01  8.55182375e-01
  8.83053242e-01  9.21488913e-01  9.31581689e-01  9.56871717e-01
  9.68120290e-01  9.69047987e-01  1.08758241e+00  1.09529877e+00
  1.11617357e+00  1.12618748e+00  1.13904434e+00  1.17806944e+00
  1.22945067e+00  1.31545271e+00  1.36859559e+00  1.51713286e+00
  1.60453368e+00  1.61349767e+00  1.64878021e+00  1.71363944e+00
  1.71882790e+00  1.75160639e+00  1.81194593e+00  1.85031393e+00
  1.85840132e+00  1.88942688e+00  1.92281681e+00  1.93809761e+00
  2.01318844e+00  2.01820267e+00  2.02902052e+00  2.03063632e+00
  2.03618494e+00  2.07245609e+00  2.13798670e+00  2.16923490e+00
  2.19954587e+00  2.21528338e+00  2.30885244e+00  2.31690412e+00
  2.33165241e+00  2.36474849e+00  2.46036400e+00  2.51643595e+00
  2.54927898e+00  2.55412297e+00  2.57530422e+00  2.57808272e+00
  2.62497495e+00  2.63067252e+00  2.64503014e+00  2.67143300e+00
  2.74836507e+00  2.77182856e+00  2.80384443e+00  2.88453351e+00
  2.92722245e+00  2.98639313e+00  2.99048082e+00  3.14786466e+00
  3.19962109e+00  3.23621052e+00  3.24771290e+00  3.30068135e+00
  3.32816289e+00  3.36405410e+00  3.58921721e+00  3.62714198e+00
  3.67867810e+00  3.73420638e+00  3.76771462e+00  3.80187470e+00
  3.83010566e+00  3.87787221e+00  3.89472439e+00  4.00268803e+00
  4.02613394e+00  4.03019695e+00  4.15845923e+00  4.39573266e+00
  4.45273633e+00  4.45486327e+00  5.06003697e+00  5.08663947e+00
  5.17306560e+00  5.18431035e+00  5.26545593e+00  5.31804292e+00
  5.41381063e+00  5.51255338e+00  5.54656327e+00  5.58630628e+00
  5.61313402e+00  5.62755384e+00  5.63528066e+00  5.67491592e+00
  5.67629314e+00  5.71645439e+00  5.75365080e+00  5.81124765e+00
  5.89858383e+00  5.91599778e+00  5.96379764e+00  6.01637206e+00
  6.06213900e+00  6.06356770e+00  6.09222908e+00  6.14086811e+00
  6.15809023e+00  6.22759577e+00  6.32320097e+00  6.34119262e+00
  6.38874700e+00  6.42758308e+00  6.47094513e+00  6.52567412e+00
  6.58517919e+00  6.63518142e+00  6.64585597e+00  6.65025655e+00
  6.65403868e+00  6.71287167e+00  6.74307535e+00  6.76453232e+00
  6.76476502e+00  6.80944158e+00  6.92419045e+00  7.14964224e+00
  7.19992296e+00  7.25807414e+00  7.26783711e+00  7.32619755e+00
  7.49861507e+00  7.63425093e+00  7.67617463e+00  7.73065474e+00
  7.74718627e+00  7.79392466e+00  7.84103476e+00  7.85815761e+00
  7.88021717e+00  7.91055388e+00  7.91563338e+00  7.94386313e+00
  7.96311647e+00  7.98669212e+00  8.04575330e+00  8.05685430e+00
  8.07383173e+00  8.10877852e+00  8.21739706e+00  8.27486680e+00
  8.36821873e+00  8.37519618e+00  8.45853595e+00  8.50934845e+00
  8.52668401e+00  8.61137382e+00  8.65282845e+00  8.69100732e+00
  8.70528066e+00  8.73138846e+00  8.80250317e+00  8.81929626e+00
  8.82745847e+00  8.83177018e+00  8.89558786e+00  9.03388020e+00
  9.07767346e+00  9.10722307e+00  9.30513511e+00  9.30714114e+00
  9.54286505e+00  9.55415096e+00  9.64321383e+00  9.75713926e+00
  1.00886639e+01  1.02027043e+01  1.02106976e+01  1.03091251e+01
  1.03902819e+01  1.04067163e+01  1.04758121e+01  1.06180818e+01
  1.06228761e+01  1.07303116e+01  1.10204381e+01  1.10547068e+01
  1.13403144e+01  1.13508437e+01  1.16706654e+01  1.22261657e+01
  1.27909022e+01  1.30601181e+01  2.00460715e+01  2.00537887e+01]
E1 = -58.111298271241886  E_coul = 25.190131101931385
cycle= 1 E= -13.3069029302817  delta_E= -0.295  |g|= 0.268  |ddm|= 4.29
    CPU time for cycle= 1     35.73 sec, wall time      0.35 sec
  HOMO = -0.364174163348069  LUMO = 0.121642450604675
  mo_energy =
[-1.02764188 -0.78696916 -0.64218965 -0.55302294 -0.50106886 -0.36417416
  0.12164245  0.14567409  0.14659195  0.14961652  0.18792985  0.27609306
  0.31272134  0.35825793  0.36610905  0.38330667  0.44917215  0.46116117
  0.47517128  0.48723809  0.50764179  0.52272362  0.53910523  0.64877206
  0.67755881  0.71504037  0.72102507  0.77499883  0.7787505   0.81707525
  0.88473888  0.89388499  0.91036921  0.95419085  0.97083466  1.00268802
  1.00904719  1.02167242  1.09811906  1.13574269  1.16215877  1.19085759
  1.20240762  1.24505758  1.26864211  1.37996008  1.40034687  1.63047884
  1.66246315  1.66491732  1.74223398  1.78726002  1.79834222  1.81811716
  1.90146359  1.94324193  1.96220221  2.00384974  2.00437705  2.00644934
  2.06391261  2.0924855   2.09942333  2.09964552  2.10268214  2.1463355
  2.20821694  2.23546491  2.25611834  2.27993647  2.3792688   2.39522605
  2.4014297   2.41400036  2.52930424  2.54894185  2.60063557  2.61628705
  2.62461002  2.63053971  2.65754732  2.67336321  2.68428521  2.71776859
  2.77637649  2.80674007  2.85752291  2.92897563  2.96888354  3.02192241
  3.03796023  3.21514471  3.25988168  3.29254641  3.34757704  3.39618237
  3.40478279  3.42830039  3.66605392  3.70901281  3.77029138  3.81303475
  3.85169823  3.87877086  3.88982073  3.94930019  3.99038536  4.08206008
  4.11144473  4.15231724  4.25606585  4.46419084  4.52647239  4.53937912
  5.23958328  5.26920961  5.32026006  5.35332377  5.43322541  5.45895609
  5.56195395  5.63982794  5.7000047   5.73034343  5.75181531  5.75198964
  5.75820313  5.78795546  5.81510636  5.84445706  5.87309644  5.96147378
  6.02799329  6.03334042  6.09480235  6.15664301  6.17528656  6.17966972
  6.18478643  6.24150041  6.29895339  6.329589    6.40216059  6.41257685
  6.45153146  6.5529814   6.60047592  6.65897085  6.70313675  6.74114394
  6.74514162  6.76928319  6.79572763  6.84973684  6.85099645  6.88784872
  6.90309281  6.90873694  7.0305151   7.27267529  7.3359197   7.34741985
  7.41665555  7.45671751  7.61410601  7.73924098  7.76382599  7.83187795
  7.85701121  7.87990741  7.91851941  7.93233089  7.96729189  7.97797804
  7.98583027  7.98954212  8.00693045  8.02328295  8.12547014  8.13098323
  8.13942145  8.15579439  8.26136894  8.32263259  8.41285578  8.46123406
  8.52654851  8.55776534  8.57548215  8.69480372  8.70534609  8.78761301
  8.79108404  8.81248687  8.89975731  8.90729111  8.94382547  8.97677823
  9.01684785  9.10635708  9.18122906  9.26055769  9.41571103  9.46703293
  9.62047299  9.67569288  9.72670982  9.84766164 10.16932263 10.29699574
 10.31820109 10.41811694 10.51222191 10.52031863 10.56963609 10.723513
 10.7362621  10.84614183 11.13450932 11.17166646 11.45219568 11.48846812
 11.83154548 12.35959887 12.91787713 13.18945688 20.27465376 20.28852629]
E1 = -57.87393102371572  E_coul = 24.93187355404298
cycle= 2 E= -13.327793230644  delta_E= -0.0209  |g|= 0.071  |ddm|= 0.475
    CPU time for cycle= 2     89.28 sec, wall time      0.73 sec
  HOMO = -0.388701541802628  LUMO = 0.120364001509621
  mo_energy =
[-1.05846507 -0.79911135 -0.66064834 -0.58659038 -0.5181079  -0.38870154
  0.120364    0.13753799  0.14515462  0.14662744  0.18769282  0.27477759
  0.31365553  0.34929881  0.35460649  0.37935238  0.44589176  0.44945633
  0.46652623  0.48357345  0.50642455  0.51373664  0.53415786  0.64704849
  0.66595754  0.7135341   0.71467306  0.77129595  0.77308114  0.8170732
  0.8794911   0.88759862  0.90845134  0.94816192  0.96362077  0.99740034
  1.00285025  1.01021743  1.09884953  1.12825342  1.15784842  1.18011514
  1.19311849  1.23192886  1.26142533  1.3731333   1.39704999  1.60227749
  1.65614469  1.66036502  1.72180532  1.77385354  1.79427249  1.7949955
  1.88221972  1.92116926  1.9402805   1.97513761  1.98828998  1.99529698
  2.06246644  2.08612849  2.08813945  2.08958513  2.09019972  2.13477276
  2.1947447   2.22402228  2.24936517  2.27093201  2.37225565  2.37891093
  2.39802624  2.40018779  2.519419    2.55111043  2.59543232  2.61414843
  2.61742218  2.62260156  2.65977736  2.67119189  2.68337385  2.71468286
  2.77690816  2.80571665  2.85132117  2.92358564  2.96566023  3.01911604
  3.0319875   3.20521708  3.25249523  3.28566361  3.32918954  3.38471734
  3.38721848  3.41744636  3.65833044  3.69491291  3.75804129  3.80942402
  3.83841858  3.87034371  3.88335463  3.94344401  3.9715732   4.07004029
  4.10060697  4.12273976  4.24348624  4.45798389  4.51999251  4.5267307
  5.19484774  5.226134    5.2895007   5.31357334  5.39416236  5.427709
  5.52942688  5.61403385  5.66967973  5.70712539  5.70833343  5.73461647
  5.7375521   5.77570355  5.78857933  5.81750226  5.85414413  5.92426929
  6.00624566  6.0102932   6.07195276  6.146999    6.14907654  6.16193155
  6.17018202  6.22817455  6.27204772  6.31728572  6.39639627  6.40927322
  6.45088704  6.53072954  6.57680798  6.63571761  6.68296795  6.73303699
  6.73368196  6.74642971  6.76731714  6.82913032  6.84394542  6.87185577
  6.87525233  6.8980801   7.0152571   7.25505958  7.31116711  7.34247166
  7.38315482  7.43575556  7.59316201  7.73922671  7.73932514  7.82032936
  7.839989    7.87692398  7.91949004  7.93895325  7.95131124  7.97514554
  7.98142075  7.99595164  8.01210248  8.03045581  8.12489023  8.12843766
  8.12918266  8.16161785  8.26541949  8.32291117  8.41684817  8.46316493
  8.5344256   8.56865243  8.58558225  8.70161399  8.70436041  8.78080017
  8.78148021  8.81742047  8.89763019  8.90877577  8.92727835  8.97004709
  8.98142523  9.11412251  9.19047889  9.21762185  9.40450429  9.44058503
  9.62709382  9.67056681  9.72784921  9.85186546 10.17376949 10.2919647
 10.30717776 10.40964754 10.50394976 10.50912011 10.56457493 10.71334796
 10.73166894 10.84326257 11.12662164 11.16451246 11.44917646 11.4717866
 11.80848463 12.34539875 12.90834418 13.17903476 20.21943824 20.23187773]
E1 = -58.01564460011028  E_coul = 25.071861795075755
cycle= 3 E= -13.3295185660057  delta_E= -0.00173  |g|= 0.025  |ddm|= 0.158
    CPU time for cycle= 3     88.51 sec, wall time      0.70 sec
  HOMO = -0.376964895386171  LUMO = 0.121819185656766
  mo_energy =
[-1.04378381 -0.79047458 -0.65224112 -0.57696537 -0.51203425 -0.3769649
  0.12181919  0.14556673  0.14653669  0.14770132  0.18806389  0.27647527
  0.31491654  0.3538777   0.35841284  0.38286376  0.44767223  0.45580495
  0.4722767   0.48809345  0.51139082  0.51869832  0.5369034   0.64996752
  0.67345578  0.71629664  0.71872881  0.77405067  0.77657823  0.81882883
  0.8828954   0.89119942  0.91094831  0.95137398  0.96765296  1.00044404
  1.00640137  1.01546078  1.10004024  1.13225063  1.16110044  1.18586994
  1.19838186  1.23861763  1.26509779  1.37860046  1.40022759  1.6131763
  1.66108856  1.66470718  1.73009948  1.78027345  1.79918011  1.80393932
  1.89034466  1.92991248  1.95023413  1.98587141  1.99582993  2.00146707
  2.06593721  2.09329076  2.09365237  2.09612229  2.09673104  2.14173425
  2.20120733  2.23006899  2.25470908  2.27682714  2.37756188  2.38662421
  2.40400012  2.40535308  2.5259557   2.55449089  2.60039668  2.62054243
  2.62107316  2.62816071  2.66252048  2.67584723  2.68756837  2.71930692
  2.77996037  2.80932243  2.85654517  2.92813433  2.96966781  3.02288323
  3.03651969  3.21172017  3.25836781  3.29126889  3.3383004   3.3937266
  3.39375095  3.42349345  3.66560069  3.70258959  3.7668212   3.81600926
  3.84709134  3.87760684  3.88896917  3.94875618  3.98145349  4.0774433
  4.10829436  4.13457234  4.25241228  4.46441926  4.5265853   4.53478665
  5.21123484  5.2426737   5.30274405  5.32885006  5.40983631  5.4405598
  5.54336448  5.62565499  5.68367746  5.71882216  5.72295835  5.74621863
  5.74798948  5.78561897  5.80133541  5.82922521  5.8650533   5.93843526
  6.01653192  6.02285716  6.08384418  6.15793304  6.16208273  6.17278014
  6.1778205   6.23751072  6.28493201  6.32664647  6.40352873  6.41602328
  6.45691793  6.54253946  6.5891143   6.64844184  6.69393043  6.74199405
  6.7420559   6.7588501   6.78010529  6.84180139  6.85417345  6.88297419
  6.88816029  6.90792044  7.025335    7.26634262  7.32353533  7.35105927
  7.39749278  7.44776597  7.604388    7.74566844  7.75145863  7.8299351
  7.85044334  7.88517098  7.92607342  7.94451136  7.96243762  7.98204754
  7.98893415  8.00130899  8.01738449  8.03533391  8.1343735   8.13525181
  8.13690197  8.16694515  8.27075765  8.32860358  8.42203401  8.47132717
  8.54101032  8.57390988  8.59092381  8.70893351  8.71037533  8.78862061
  8.79154077  8.82460107  8.90798761  8.9157904   8.93981174  8.97858068
  8.99859589  9.12123547  9.19749931  9.23435552  9.41444729  9.45572437
  9.63457798  9.68167666  9.73606968  9.86033284 10.18168139 10.3010656
 10.31757816 10.42013418 10.51617258 10.51914467 10.5736497  10.72352191
 10.74242155 10.85408968 11.13736596 11.17553222 11.45973751 11.48486882
 11.82383421 12.35776582 12.92071938 13.19160406 20.2418838  20.25487699]
E1 = -57.973105901612755  E_coul = 25.029115579315338
cycle= 4 E= -13.3297260832686  delta_E= -0.000208  |g|= 0.00244  |ddm|= 0.0485
    CPU time for cycle= 4     84.45 sec, wall time      0.68 sec
  HOMO = -0.377230907320048  LUMO = 0.121709352099525
  mo_energy =
[-1.04441561 -0.79117168 -0.65292059 -0.57804578 -0.51288822 -0.37723091
  0.12170935  0.14518107  0.14645981  0.14758231  0.18795909  0.27623602
  0.31473256  0.35393856  0.35823084  0.38267608  0.44761911  0.45558666
  0.47195713  0.48768202  0.51094608  0.51841589  0.5366687   0.64972136
  0.67284063  0.71600267  0.71841586  0.77388278  0.7763034   0.81861445
  0.8824814   0.89099075  0.91079069  0.95126727  0.96728997  1.00027387
  1.00607818  1.01501501  1.09981512  1.13197167  1.16083436  1.18531866
  1.19787986  1.23822112  1.264909    1.37808103  1.39995996  1.61271878
  1.66071478  1.66432189  1.72970301  1.77988245  1.79877684  1.80340209
  1.88992346  1.92953928  1.94974874  1.98526027  1.99536851  2.00097147
  2.06554473  2.09277455  2.09284302  2.09550415  2.09593068  2.14115415
  2.20075646  2.22959743  2.2543066   2.27637987  2.37706363  2.38596024
  2.40368817  2.40483199  2.52547162  2.55411591  2.59991693  2.61996905
  2.6206065   2.62774834  2.6621847   2.67535896  2.68717593  2.71888402
  2.77961038  2.80900638  2.85612098  2.92779435  2.96926783  3.0225452
  3.03614415  3.21126234  3.2578247   3.29075749  3.33756507  3.39297711
  3.39321577  3.42307204  3.66497363  3.70201351  3.76613461  3.81533358
  3.84641865  3.87684372  3.88843619  3.94825674  3.98052434  4.07689206
  4.10762135  4.133824    4.25163704  4.46375621  4.52606125  4.53418565
  5.21039142  5.24193985  5.30191183  5.32814955  5.40900212  5.43979926
  5.54229997  5.62487536  5.68282931  5.71770405  5.72191606  5.74507267
  5.74690655  5.78453138  5.80028134  5.82842397  5.86399467  5.9373975
  6.01582453  6.02190091  6.082724    6.15717026  6.16103534  6.17163426
  6.17712854  6.23670678  6.28389197  6.32582756  6.40275909  6.41534469
  6.45631838  6.54170121  6.58825494  6.64746645  6.6931153   6.74122837
  6.7413304   6.75799268  6.77912303  6.84069706  6.85325858  6.88193267
  6.88736088  6.90712088  7.02440252  7.26532768  7.32266977  7.3502793
  7.39646058  7.44680989  7.60351268  7.74509145  7.75043125  7.82923011
  7.84970486  7.88445461  7.92550768  7.9439145   7.96159791  7.98145494
  7.98822625  8.00079142  8.01686356  8.03484711  8.13385283  8.13448938
  8.13624658  8.16633019  8.27028586  8.3280735   8.42153539  8.47061668
  8.54032772  8.57336183  8.59037941  8.70840026  8.70960975  8.78788049
  8.79070197  8.82393923  8.90716469  8.91505551  8.93872844  8.97783543
  8.99737659  9.12053377  9.19673096  9.23311145  9.41363475  9.45454843
  9.63386496  9.68076673  9.73530191  9.859477   10.18091718 10.3002431
 10.31666503 10.41935365 10.51515279 10.51824845 10.57283715 10.72258517
 10.74148878 10.85314831 11.13646099 11.17452091 11.458744   11.48380149
 11.82277031 12.35682378 12.91965275 13.19051123 20.24015709 20.25317877]
E1 = -57.974574736338084  E_coul = 25.030580988288825
cycle= 5 E= -13.3297295090205  delta_E= -3.43e-06  |g|= 0.000556  |ddm|= 0.00759
    CPU time for cycle= 5     89.54 sec, wall time      0.72 sec
  HOMO = -0.377108996907242  LUMO = 0.121698551641063
  mo_energy =
[-1.04441534 -0.79115935 -0.65292694 -0.57808862 -0.51290515 -0.377109
  0.12169855  0.14522727  0.14645117  0.14757882  0.18794096  0.27622657
  0.3147365   0.35402622  0.35821315  0.38267773  0.44764302  0.45565787
  0.47195737  0.4876863   0.51095169  0.51840504  0.53666149  0.64972091
  0.67285439  0.71600068  0.71843576  0.77387076  0.77627926  0.81859626
  0.88249126  0.89100119  0.91079371  0.95126457  0.96727314  1.00029851
  1.00610865  1.0150245   1.09979898  1.1319479   1.16082556  1.18532017
  1.19786974  1.23821917  1.26491849  1.37807167  1.39994914  1.61277925
  1.66071517  1.6643345   1.72970106  1.77987922  1.79877335  1.80345507
  1.88990944  1.92952611  1.94976932  1.98528177  1.99536715  2.00097704
  2.06554591  2.09279814  2.09287386  2.09554046  2.09595169  2.14113896
  2.20075905  2.2296121   2.25430425  2.27639287  2.37709607  2.38600668
  2.40366093  2.40483797  2.52544577  2.55410381  2.599903    2.61999315
  2.62060542  2.62772956  2.6621678   2.67534419  2.6871569   2.71886878
  2.77958777  2.80898561  2.85608679  2.92777956  2.96925957  3.02253017
  3.03613488  3.21123221  3.25780213  3.29073996  3.33757125  3.39299722
  3.39321215  3.42305672  3.66496969  3.70200891  3.76614116  3.81535272
  3.84640067  3.87688296  3.88843982  3.94824574  3.98057377  4.07689734
  4.10762291  4.13381555  4.2516425   4.46376959  4.52605252  4.53416713
  5.21037787  5.24190626  5.30191374  5.32810956  5.4089911   5.4397937
  5.54235167  5.62487719  5.68282969  5.71779288  5.72195231  5.74516154
  5.74698646  5.78461997  5.80033253  5.82843259  5.86406399  5.93743188
  6.01581779  6.02193117  6.0827985   6.1571807   6.16107463  6.17172707
  6.17712839  6.23671398  6.28393253  6.32584625  6.4027939   6.41534388
  6.45631212  6.5417      6.58825605  6.64748656  6.69312704  6.74122871
  6.74132461  6.75800141  6.77914698  6.84075417  6.85328432  6.88199202
  6.88733853  6.90712721  7.02442984  7.2653681   7.3226669   7.35027967
  7.39646824  7.44684169  7.60351203  7.74507033  7.75046074  7.82922236
  7.84968703  7.88444854  7.9254813   7.94389865  7.9616149   7.98143535
  7.98822367  8.00076394  8.01683867  8.03481383  8.13382531  8.13448407
  8.13623821  8.16631946  8.27024887  8.32804583  8.42150717  8.47061614
  8.54032851  8.57334044  8.5903571   8.70837768  8.70960959  8.78787754
  8.79071313  8.82392546  8.90717853  8.91506409  8.93878922  8.97784424
  8.9974435   9.12053399  9.19674652  9.23315208  9.41363512  9.45461937
  9.63386453  9.68078472  9.7353037   9.85949758 10.18091678 10.30025031
 10.31667855 10.41935137 10.51519377 10.51826809 10.57284073 10.72260496
 10.74151716 10.85317134 11.13647689 11.17456609 11.45878682 11.48384987
 11.82280506 12.35684134 12.91969938 13.19056374 20.24028925 20.25330248]
E1 = -57.97435954629519  E_coul = 25.0303655450613
cycle= 6 E= -13.3297297622051  delta_E= -2.53e-07  |g|= 0.000137  |ddm|= 0.00231
    CPU time for cycle= 6     97.52 sec, wall time      0.77 sec
  HOMO = -0.37710426155348  LUMO = 0.121692619381576
  mo_energy =
[-1.04445187 -0.79119271 -0.6529553  -0.57812921 -0.51292908 -0.37710426
  0.12169262  0.14520938  0.14644596  0.14757213  0.18793504  0.27621856
  0.31473009  0.35403629  0.35819903  0.3826735   0.4476421   0.45565394
  0.47194412  0.48767378  0.51093812  0.51839219  0.53665218  0.6497132
  0.6728337   0.71599084  0.71842563  0.77386639  0.77626844  0.81858908
  0.88247632  0.89099342  0.91078919  0.95125782  0.96725951  1.00029317
  1.0060992   1.01500841  1.09979054  1.13193524  1.16081515  1.18529934
  1.19785085  1.23820331  1.26491039  1.37805508  1.39994103  1.61275922
  1.66070426  1.66432322  1.72967774  1.77986285  1.79876206  1.8034332
  1.88989137  1.92951069  1.94975138  1.98525452  1.99535131  2.00096117
  2.065536    2.09278534  2.09284757  2.0955218   2.09592474  2.14111743
  2.20074159  2.22959746  2.25429265  2.27637937  2.37707935  2.38598405
  2.40365048  2.40481437  2.5254288   2.55409165  2.59988836  2.61997745
  2.62059088  2.62771293  2.66215495  2.67532626  2.68714461  2.71885345
  2.7795752   2.80897169  2.85607034  2.92776697  2.96924302  3.02251826
  3.03611919  3.21121332  3.2577817   3.29072436  3.33754476  3.39296744
  3.39319438  3.42303735  3.6649509   3.7019881   3.76612145  3.81533433
  3.84637675  3.87686041  3.88842362  3.9482293   3.98054483  4.07687628
  4.10760222  4.13378262  4.25161968  4.46375279  4.52603381  4.53414704
  5.21033244  5.24186307  5.3018822   5.32807267  5.40895431  5.43976545
  5.54231213  5.62485133  5.68280078  5.71775931  5.72190412  5.74512589
  5.74695964  5.78459585  5.80029907  5.82840601  5.86403437  5.93739066
  6.01579289  6.02189773  6.08276432  6.15715984  6.16103763  6.17169173
  6.17711054  6.23668558  6.28389673  6.32582253  6.40277269  6.41532504
  6.45629622  6.54167375  6.5882271   6.64745259  6.69309968  6.74120427
  6.74130595  6.75797358  6.77911238  6.84072586  6.85326267  6.88196536
  6.88730631  6.90710289  7.02440189  7.26533567  7.32263312  7.35025773
  7.39642686  7.44680702  7.60348008  7.74504996  7.75042209  7.8292014
  7.8496592   7.88443103  7.92546223  7.94388283  7.96158325  7.98141395
  7.98820268  8.00074706  8.01682377  8.03479748  8.13380761  8.13445999
  8.1362207   8.16630198  8.27023287  8.32802713  8.42148887  8.47060131
  8.54031598  8.57332838  8.59034494  8.70836308  8.70959178  8.78785416
  8.79068975  8.82391145  8.90715578  8.91505059  8.93876177  8.9778221
  8.99739937  9.12052095  9.19673254  9.23309811  9.41361197  9.45458246
  9.63385047  9.6807668   9.73528696  9.85947991 10.18090136 10.30022809
 10.31665313 10.41933368 10.51516639 10.51824742 10.57281864 10.72257978
 10.74149763 10.8531507  11.13645411 11.17454535 11.45876775 11.48382158
 11.82277238 12.35681729 12.91967486 13.19053868 20.24022423 20.25323735]
E1 = -57.97445748774301  E_coul = 25.030463473370272
cycle= 7 E= -13.329729775344  delta_E= -1.31e-08  |g|= 1.25e-05  |ddm|= 0.000562
    CPU time for cycle= 7     76.77 sec, wall time      0.60 sec
  HOMO = -0.377102323093443  LUMO = 0.121692075785466
  mo_energy =
[-1.04445303 -0.7911929  -0.65295706 -0.5781304  -0.51292998 -0.37710232
  0.12169208  0.1452086   0.14644517  0.1475717   0.18793453  0.27621839
  0.31472957  0.35403702  0.3581982   0.38267262  0.44764227  0.45565433
  0.47194258  0.487673    0.51093723  0.51839117  0.53665146  0.64971235
  0.67283268  0.71599005  0.71842528  0.77386563  0.77626764  0.81858817
  0.88247577  0.8909929   0.91078869  0.95125729  0.9672583   1.00029284
  1.00609934  1.01500783  1.0997898   1.131934    1.16081425  1.18529829
  1.19784953  1.23820233  1.26490986  1.37805362  1.39994003  1.612759
  1.66070316  1.66432232  1.7296768   1.7798618   1.79876091  1.80343282
  1.8898903   1.92950969  1.94975035  1.98525373  1.99535002  2.00096023
  2.06553494  2.09278445  2.0928468   2.09552137  2.09592389  2.1411159
  2.20074062  2.22959677  2.25429165  2.27637848  2.3770788   2.38598351
  2.40364904  2.40481342  2.52542712  2.5540902   2.59988696  2.61997664
  2.62058958  2.62771142  2.66215367  2.67532461  2.68714292  2.71885191
  2.77957378  2.80897028  2.8560687   2.92776567  2.96924179  3.02251707
  3.03611813  3.21121169  3.25778008  3.29072277  3.33754347  3.39296664
  3.39319294  3.4230361   3.6649492   3.70198671  3.76611968  3.81533269
  3.84637481  3.87685917  3.88842244  3.94822779  3.98054396  4.07687485
  4.1076006   4.13378114  4.25161793  4.46375156  4.52603216  4.53414541
  5.21033098  5.24186125  5.30188094  5.32807103  5.40895263  5.43976407
  5.54231109  5.62484987  5.68279915  5.71775882  5.72190286  5.74512514
  5.74695849  5.78459495  5.80029771  5.82840467  5.86403329  5.93738934
  6.01579146  6.02189619  6.08276327  6.15715781  6.16103622  6.17169126
  6.17710871  6.23668372  6.28389517  6.32582078  6.4027714   6.41532318
  6.45629434  6.54167194  6.58822531  6.64745062  6.69309814  6.74120255
  6.74130396  6.75797189  6.77911111  6.84072422  6.85326032  6.8819639
  6.88730439  6.90710071  7.02440019  7.26533397  7.32263127  7.35025529
  7.39642491  7.44680536  7.60347805  7.74504749  7.75042051  7.82919938
  7.84965701  7.88442854  7.9254595   7.94388006  7.96158118  7.98141161
  7.98820035  8.00074422  8.01682115  8.03479455  8.13380493  8.13445776
  8.13621834  8.16629935  8.27023014  8.3280246   8.42148633  8.47059868
  8.5403133   8.5733255   8.5903421   8.70836038  8.70958938  8.787852
  8.79068735  8.82390864  8.90715353  8.9150477   8.93875997  8.97781985
  8.99739784  9.12051803  9.19672974  9.23309669  9.41360985  9.45458083
  9.63384751  9.68076411  9.73528417  9.85947707 10.1808984  10.30022562
 10.31665075 10.41933104 10.51516445 10.51824471 10.57281612 10.72257748
 10.74149486 10.8531478  11.13645159 11.17454297 11.45876516 11.4838194
 11.82276999 12.35681494 12.91967219 13.1905361  20.2402231  20.25323613]
E1 = -57.97445883660308  E_coul = 25.030464822121466
cycle= 8 E= -13.3297297754528  delta_E= -1.09e-10  |g|= 1.72e-06  |ddm|= 5.88e-05
    CPU time for cycle= 8     87.49 sec, wall time      0.69 sec
  HOMO = -0.377101947639172  LUMO = 0.121692119765089
  mo_energy =
[-1.04445271 -0.79119276 -0.6529571  -0.57813018 -0.51292989 -0.37710195
  0.12169212  0.14520877  0.14644516  0.14757175  0.18793452  0.27621846
  0.31472959  0.35403723  0.35819825  0.38267274  0.44764236  0.45565456
  0.47194266  0.48767312  0.51093741  0.51839125  0.53665149  0.64971239
  0.67283288  0.71599011  0.71842538  0.77386568  0.77626773  0.81858819
  0.88247586  0.890993    0.91078874  0.95125735  0.96725843  1.00029294
  1.00609947  1.01500802  1.09978982  1.13193406  1.16081431  1.18529842
  1.19784963  1.23820255  1.26490994  1.37805376  1.3999401   1.6127593
  1.66070327  1.66432243  1.72967698  1.77986194  1.79876099  1.80343308
  1.8898905   1.92950994  1.9497506   1.98525402  1.99535022  2.00096038
  2.06553501  2.09278457  2.09284705  2.09552155  2.09592414  2.14111608
  2.20074077  2.22959693  2.25429177  2.27637864  2.37707894  2.38598373
  2.40364908  2.40481358  2.52542726  2.55409023  2.59988707  2.6199768
  2.62058964  2.62771151  2.66215368  2.67532468  2.68714295  2.71885198
  2.7795738   2.80897031  2.8560688   2.92776574  2.96924185  3.02251711
  3.0361182   3.21121183  3.25778022  3.2907229   3.33754373  3.39296688
  3.39319307  3.42303622  3.66494937  3.70198687  3.76611989  3.81533283
  3.84637502  3.87685934  3.88842254  3.94822789  3.98054426  4.07687499
  4.10760077  4.13378145  4.25161815  4.46375173  4.52603228  4.53414562
  5.21033138  5.24186163  5.3018813   5.32807143  5.40895305  5.43976443
  5.54231148  5.62485019  5.68279955  5.71775911  5.72190326  5.74512547
  5.74695876  5.78459522  5.80029804  5.82840499  5.86403358  5.9373897
  6.01579172  6.02189653  6.08276358  6.157158    6.16103663  6.17169155
  6.17710887  6.23668391  6.28389551  6.32582098  6.40277155  6.41532329
  6.45629442  6.54167227  6.58822565  6.64745092  6.6930984   6.74120275
  6.74130415  6.75797223  6.77911146  6.84072457  6.85326052  6.88196419
  6.88730471  6.9071009   7.02440045  7.26533422  7.32263157  7.35025542
  7.39642528  7.44680563  7.6034783   7.74504754  7.75042079  7.82919959
  7.84965721  7.88442867  7.92545954  7.94388007  7.9615814   7.98141168
  7.98820045  8.00074421  8.01682115  8.03479451  8.13380495  8.134458
  8.13621846  8.16629937  8.27023015  8.32802464  8.42148633  8.47059878
  8.54031334  8.57332549  8.59034208  8.70836036  8.70958952  8.78785214
  8.79068755  8.82390872  8.90715374  8.91504773  8.9387603   8.97781998
  8.99739832  9.12051807  9.19672978  9.23309711  9.41361004  9.45458125
  9.63384755  9.68076434  9.73528428  9.85947719 10.18089849 10.30022576
 10.31665094 10.41933125 10.51516477 10.51824489 10.57281625 10.72257767
 10.74149506 10.853148   11.13645182 11.17454321 11.45876536 11.48381972
 11.82277037 12.35681524 12.91967246 13.19053638 20.24022378 20.25323683]
E1 = -57.97445753684935  E_coul = 25.030463522365945
Extra cycle  E= -13.3297297754546  delta_E= -1.8e-12  |g|= 6.08e-07  |ddm|= 6.3e-06
    CPU time for scf_cycle   1016.11 sec, wall time      8.48 sec
    CPU time for SCF   1016.12 sec, wall time      8.48 sec
converged SCF energy = -13.3297297754546
