#INFO: **** input file is /home/nkousuke/lustre/toBeSync/turboRVB/05turbo-genius-development/turbogenius_paper/04data/sanity_checks/02pyscf_prep_LDA_via_trexio/00open_boundary/results/H2O2/pyscf-LDA-workflow/run.py ****

from pyscf_wrapper import Pyscf_wrapper

# input variables
pyscf_chkfile="pyscf.chk"
structure_file="H2O2.xyz"

# input variables
omp_num_threads=128
charge=0
spin=0
basis="ccecp-ccpvqz"
ecp="ccecp"
scf_method="DFT"
dft_xc="LDA_X,LDA_C_PZ"
solver_newton=False
MP2_flag=False
CCSD_flag=False
pyscf_output="out.pyscf"
twist_average=False
exp_to_discard=0.1
kpt=[0.0, 0.0, 0.0]
kpt_grid=[1, 1, 1]
smearing_method="fermi"
smearing_sigma=0.0

pyscf_calc=Pyscf_wrapper(
                        structure_file=structure_file,
                        chkfile=pyscf_chkfile,
                        )

pyscf_calc.run_pyscf(
                  omp_num_threads=omp_num_threads,
                  charge=charge,
                  spin=spin,
                  basis=basis,
                  ecp=ecp,
                  scf_method=scf_method,
                  dft_xc=dft_xc,
                  solver_newton=solver_newton,
                  MP2_flag=MP2_flag,
                  CCSD_flag=CCSD_flag,
                  pyscf_output=pyscf_output,
                  twist_average=twist_average,
                  exp_to_discard=exp_to_discard,
                  kpt=kpt,
                  kpt_grid=kpt_grid,
                  smearing_method=smearing_method,
                  smearing_sigma=smearing_sigma
                  )
                #INFO: ******************** input file end ********************


System: uname_result(system='Linux', node='spcc-205', release='5.4.0-66-generic', version='#74-Ubuntu SMP Wed Jan 27 22:54:38 UTC 2021', machine='x86_64', processor='x86_64')  Threads 128
Python 3.7.3 (default, Mar 27 2019, 22:11:17) 
[GCC 7.3.0]
numpy 1.20.1  scipy 1.7.3
Date: Thu Dec 22 06:23:39 2022
PySCF version 2.0.1
PySCF path  /home/nkousuke/application/anaconda3/lib/python3.7/site-packages/pyscf

[CONFIG] conf_file /home/nkousuke/.pyscf_conf.py
[INPUT] verbose = 5
[INPUT] max_memory = 507436.94921875 
[INPUT] num. atoms = 4
[INPUT] num. electrons = 14
[INPUT] charge = 0
[INPUT] spin (= nelec alpha-beta = 2S) = 0
[INPUT] symmetry False subgroup None
[INPUT] Mole.unit = A
[INPUT]  1 O      0.000000000000   0.725500000000  -0.058220000000 AA    0.000000000000   1.370996303372  -0.110019854972 Bohr
[INPUT]  2 O      0.000000000000  -0.725500000000  -0.058220000000 AA    0.000000000000  -1.370996303372  -0.110019854972 Bohr
[INPUT]  3 H      0.790130000000   0.892670000000   0.465750000000 AA    1.493129302803   1.686901819615   0.880139942516 Bohr
[INPUT]  4 H     -0.790130000000  -0.892670000000   0.465750000000 AA   -1.493129302803  -1.686901819615   0.880139942516 Bohr
[INPUT] ---------------- BASIS SET ---------------- 
[INPUT] l, kappa, [nprim/nctr], expnt,             c_1 c_2 ...
[INPUT] O
[INPUT] 0    0    [9    /1   ]  54.775216         -0.0012444
                                25.616801         0.010733
                                11.980245         0.0018889
                                6.992317          -0.1742537
                                2.620277          0.0017622
                                1.225429          0.3161846
                                0.577797          0.4512023
                                0.268022          0.3121534
                                0.125346          0.0511167
[INPUT] 0    0    [1    /1   ]  1.351771             1
[INPUT] 0    0    [1    /1   ]  0.843157             1
[INPUT] 0    0    [1    /1   ]  0.22438              1
[INPUT] 1    0    [9    /1   ]  22.217266         0.0104866
                                10.74755          0.0366435
                                5.315785          0.0803674
                                2.660761          0.162701
                                1.331816          0.2377791
                                0.678626          0.2811422
                                0.333673          0.2643189
                                0.167017          0.1466014
                                0.083598          0.0458145
[INPUT] 1    0    [1    /1   ]  1.106737             1
[INPUT] 1    0    [1    /1   ]  0.452364             1
[INPUT] 1    0    [1    /1   ]  0.148562             1
[INPUT] 2    0    [1    /1   ]  4.008867             1
[INPUT] 2    0    [1    /1   ]  1.344331             1
[INPUT] 2    0    [1    /1   ]  0.455711             1
[INPUT] 3    0    [1    /1   ]  2.763115             1
[INPUT] 3    0    [1    /1   ]  0.876289             1
[INPUT] 4    0    [1    /1   ]  1.759081             1
[INPUT] H
[INPUT] 0    0    [8    /1   ]  23.843185         0.0041149
                                10.212443         0.0104644
                                4.374164          0.0280111
                                1.873529          0.0758862
                                0.802465          0.1821062
                                0.343709          0.3485214
                                0.147217          0.3782313
                                0.063055          0.1164241
[INPUT] 0    0    [1    /1   ]  0.081856             1
[INPUT] 0    0    [1    /1   ]  0.233254             1
[INPUT] 0    0    [1    /1   ]  0.664673             1
[INPUT] 1    0    [1    /1   ]  0.284469             1
[INPUT] 1    0    [1    /1   ]  0.847159             1
[INPUT] 1    0    [1    /1   ]  2.522868             1
[INPUT] 2    0    [1    /1   ]  0.665279             1
[INPUT] 2    0    [1    /1   ]  2.048739             1
[INPUT] 3    0    [1    /1   ]  1.42146              1

nuclear repulsion = 23.3331484872307
number of shells = 48
number of NR pGTOs = 246
number of NR cGTOs = 168
basis = ccecp-ccpvqz
ecp = ccecp
CPU time:         6.37


******** <class 'pyscf.df.df_jk.density_fit.<locals>.DFHF'> ********
method = DFHF-RKS-RHF
initial guess = minao
damping factor = 0
level_shift factor = 0
DIIS = <class 'pyscf.scf.diis.CDIIS'>
diis_start_cycle = 1
diis_space = 8
SCF conv_tol = 1e-09
SCF conv_tol_grad = None
SCF max_cycles = 200
direct_scf = True
direct_scf_tol = 1e-13
chkfile to save SCF result = pyscf.chk
max_memory 507436 MB (current use 106 MB)
XC library pyscf.dft.libxc version 5.1.7
    S. Lehtola, C. Steigemann, M. J. Oliveira, and M. A. Marques, SoftwareX 7, 1 (2018)
XC functionals = LDA_X,LDA_C_PZ
    P. A. M. Dirac, Math. Proc. Cambridge Philos. Soc. 26, 376 (1930)
    F. Bloch, Z. Phys. 57, 545 (1929)
    J. P. Perdew and A. Zunger, Phys. Rev. B 23, 5048 (1981)
radial grids: 
    Treutler-Ahlrichs [JCP 102, 346 (1995); DOI:10.1063/1.469408] (M4) radial grids
    
becke partition: Becke, JCP 88, 2547 (1988); DOI:10.1063/1.454033
pruning grids: <function nwchem_prune at 0x14e3e00dd730>
grids dens level: 3
symmetrized grids: False
atomic radii adjust function: <function treutler_atomic_radii_adjust at 0x14e3e00dd620>
small_rho_cutoff = 1e-07
Set gradient conv threshold to 3.16228e-05
atom O rad-grids = 75, ang-grids = [ 50  50  50  50  50  50  50  50  50  50  50  50  50  50  50  50  50  50
  50  50  50  50  86  86  86  86  86  86  86  86  86 266 266 266 266 266
 266 266 302 302 302 302 302 302 302 302 302 302 302 302 302 302 302 302
 302 302 302 266 266 266 266 266 266 266 266 266 266 266 266 266 266 266
 266 266 266]
atom H rad-grids = 50, ang-grids = [ 50  50  50  50  50  50  50  50  50  50  50  50  50  50  86  86  86  86
 266 266 266 266 302 302 302 302 302 302 302 302 302 302 302 302 302 266
 266 266 266 266 266 266 266 266 266 266 266 266 266 266]
tot grids = 48572
Drop grids 4572
    CPU time for setting up grids     37.93 sec, wall time      0.31 sec
nelec by numeric integration = 13.999883360331879
    CPU time for vxc     41.42 sec, wall time      0.32 sec
Even tempered Gaussians are generated as DF auxbasis for  O H
  ETB auxbasis for O  [[0, [64.177152, 1]], [0, [32.088576, 1]], [0, [16.044288, 1]], [0, [8.022144, 1]], [0, [4.011072, 1]], [0, [2.005536, 1]], [0, [1.002768, 1]], [0, [0.501384, 1]], [0, [0.250692, 1]], [1, [52.41108427692326, 1]], [1, [26.20554213846163, 1]], [1, [13.102771069230815, 1]], [1, [6.551385534615408, 1]], [1, [3.275692767307704, 1]], [1, [1.637846383653852, 1]], [1, [0.818923191826926, 1]], [1, [0.409461595913463, 1]], [1, [0.2047307979567315, 1]], [2, [42.802176, 1]], [2, [21.401088, 1]], [2, [10.700544, 1]], [2, [5.350272, 1]], [2, [2.675136, 1]], [2, [1.337568, 1]], [2, [0.668784, 1]], [2, [0.334392, 1]], [2, [0.167196, 1]], [3, [12.491732442583295, 1]], [3, [6.245866221291648, 1]], [3, [3.122933110645824, 1]], [3, [1.561466555322912, 1]], [3, [0.780733277661456, 1]], [3, [0.390366638830728, 1]], [4, [7.291376, 1]], [4, [3.645688, 1]], [4, [1.822844, 1]], [4, [0.911422, 1]]]
  ETB auxbasis for H  [[0, [32.28416, 1]], [0, [16.14208, 1]], [0, [8.07104, 1]], [0, [4.03552, 1]], [0, [2.01776, 1]], [0, [1.00888, 1]], [0, [0.50444, 1]], [0, [0.25222, 1]], [0, [0.12611, 1]], [1, [8.571507550502421, 1]], [1, [4.2857537752512105, 1]], [1, [2.1428768876256052, 1]], [1, [1.0714384438128026, 1]], [1, [0.5357192219064013, 1]], [1, [0.26785961095320066, 1]], [2, [4.551504, 1]], [2, [2.275752, 1]], [2, [1.137876, 1]], [2, [0.568938, 1]]]
num shells = 112, num cGTOs = 412
    CPU time for df-vj     37.95 sec, wall time      0.30 sec
E1 = -98.98554989143196  Ecoul = 49.97894985244654  Exc = -7.250763808578842
init E= -32.9242153603335
cond(S) = 21801.73576077336
    CPU time for initialize scf    268.35 sec, wall time      2.17 sec
  HOMO = -0.345556455978991  LUMO = -0.123667671174635
  mo_energy =
[-1.12118501e+00 -9.19717668e-01 -5.67801301e-01 -5.36479097e-01
 -4.84612921e-01 -3.79650978e-01 -3.45556456e-01 -1.23667671e-01
 -2.13379177e-02  2.11141018e-02  2.00014340e-01  2.03010801e-01
  2.42061300e-01  2.42825160e-01  2.83889319e-01  3.16046972e-01
  3.39763226e-01  3.56972575e-01  4.27893519e-01  4.75806801e-01
  5.51985830e-01  5.59073214e-01  7.22479050e-01  7.70342378e-01
  8.62493592e-01  9.38128231e-01  9.64827349e-01  9.72182864e-01
  1.07927933e+00  1.11978946e+00  1.14075818e+00  1.17505187e+00
  1.23671598e+00  1.27519284e+00  1.36657425e+00  1.38916558e+00
  1.44847448e+00  1.48032077e+00  1.60643235e+00  1.72671188e+00
  1.76795312e+00  1.88430701e+00  1.90510312e+00  2.06823007e+00
  2.07025399e+00  2.10538596e+00  2.17852798e+00  2.22042247e+00
  2.22593612e+00  2.26730189e+00  2.34026007e+00  2.45227162e+00
  2.50682214e+00  2.53783329e+00  2.56878297e+00  2.63998158e+00
  2.67733705e+00  2.72603252e+00  2.94656999e+00  3.00568336e+00
  3.00577061e+00  3.09697349e+00  3.15189974e+00  3.33501185e+00
  3.39120015e+00  3.56205141e+00  3.61489531e+00  3.68762863e+00
  3.73242083e+00  3.76021638e+00  3.78908727e+00  3.89395018e+00
  3.92099238e+00  3.98675372e+00  4.06744827e+00  4.08220095e+00
  4.29332480e+00  4.29504955e+00  4.40314780e+00  4.40546110e+00
  4.46082029e+00  4.48727881e+00  4.63971641e+00  4.95121087e+00
  5.24301570e+00  5.74497663e+00  5.78439420e+00  5.80219059e+00
  5.82573054e+00  5.92147783e+00  6.24871217e+00  6.26447805e+00
  6.36666468e+00  6.37675494e+00  6.44653889e+00  6.50492306e+00
  6.58197728e+00  6.60840333e+00  6.73343581e+00  6.79740981e+00
  7.12105911e+00  7.28443286e+00  7.32358999e+00  7.34652397e+00
  7.40613516e+00  7.42476679e+00  7.49215955e+00  7.53163728e+00
  7.54540708e+00  7.55442095e+00  7.57267978e+00  7.72175290e+00
  7.75853503e+00  7.82403970e+00  7.91891730e+00  7.94158441e+00
  8.04975170e+00  8.15176199e+00  8.21167477e+00  8.21693146e+00
  8.44825659e+00  8.65857614e+00  8.74636561e+00  8.76576437e+00
  8.79527968e+00  8.83229157e+00  8.95665150e+00  9.02015401e+00
  9.20302285e+00  9.26501621e+00  9.66247184e+00  9.66308057e+00
  9.73540620e+00  9.97185619e+00  1.01677662e+01  1.02599216e+01
  1.04135474e+01  1.04895913e+01  1.07709967e+01  1.08297690e+01
  1.10342361e+01  1.10352933e+01  1.11456514e+01  1.13107053e+01
  1.13307998e+01  1.13410987e+01  1.14415555e+01  1.16885522e+01
  1.17172137e+01  1.17649629e+01  1.18883717e+01  1.20363850e+01
  1.20412470e+01  1.21059869e+01  1.25245178e+01  1.25640989e+01
  1.28860661e+01  1.30387045e+01  1.34342760e+01  1.36940680e+01
  1.38733227e+01  1.38879508e+01  1.39830544e+01  1.42090550e+01
  1.59439791e+01  1.60641439e+01  3.19541072e+01  3.21781904e+01]
nelec by numeric integration = 14.000001012497101
    CPU time for vxc     31.00 sec, wall time      0.24 sec
    CPU time for df-vj      6.04 sec, wall time      0.05 sec
E1 = -101.53258579401906  Ecoul = 52.99507795223272  Exc = -7.748502777923536
cycle= 1 E= -32.9528621324791  delta_E= -0.0286  |g|= 0.633  |ddm|=  3.9
    CPU time for cycle= 1     42.96 sec, wall time      0.35 sec
  HOMO = -0.118924020553629  LUMO = 0.0164516685962412
  mo_energy =
[-9.34509064e-01 -7.29538453e-01 -3.98836365e-01 -3.37412491e-01
 -2.63768789e-01 -1.62213717e-01 -1.18924021e-01  1.64516686e-02
  2.31982519e-02  1.05570747e-01  2.74432221e-01  2.81921946e-01
  2.90018163e-01  3.00714146e-01  3.49882863e-01  3.94644631e-01
  4.08482147e-01  4.22643056e-01  4.61990335e-01  5.02803960e-01
  5.81344427e-01  6.05632533e-01  7.78220849e-01  8.56111048e-01
  9.64984465e-01  9.77876604e-01  1.02070734e+00  1.04113408e+00
  1.16045766e+00  1.21105561e+00  1.23584825e+00  1.28386118e+00
  1.34426067e+00  1.39602196e+00  1.45189878e+00  1.49053117e+00
  1.56136023e+00  1.60370313e+00  1.72241254e+00  1.85945439e+00
  1.89411481e+00  1.91946416e+00  1.96746888e+00  2.08870190e+00
  2.08878697e+00  2.17042426e+00  2.23007602e+00  2.28481707e+00
  2.30366732e+00  2.32461022e+00  2.37572299e+00  2.50000679e+00
  2.57266209e+00  2.58937723e+00  2.64479637e+00  2.69506889e+00
  2.75757117e+00  2.82638809e+00  3.03716585e+00  3.08610453e+00
  3.13317422e+00  3.22576826e+00  3.27923329e+00  3.47822962e+00
  3.53497747e+00  3.73208912e+00  3.76435319e+00  3.87710861e+00
  3.92832012e+00  3.92986143e+00  3.97265111e+00  4.08355818e+00
  4.11846493e+00  4.16264901e+00  4.25172423e+00  4.25829131e+00
  4.41372590e+00  4.42754815e+00  4.53068869e+00  4.53218760e+00
  4.60656524e+00  4.62745051e+00  4.82131644e+00  5.07635948e+00
  5.35814890e+00  5.78219084e+00  5.82768462e+00  5.82768986e+00
  5.86308792e+00  6.04571380e+00  6.40236219e+00  6.41934610e+00
  6.49876687e+00  6.53897738e+00  6.58634123e+00  6.59583993e+00
  6.72156312e+00  6.75624637e+00  6.83236444e+00  6.92205822e+00
  7.18631637e+00  7.36042753e+00  7.40073398e+00  7.40932381e+00
  7.44077427e+00  7.47906571e+00  7.51480023e+00  7.56711246e+00
  7.57973371e+00  7.57980810e+00  7.64793844e+00  7.74480109e+00
  7.78018299e+00  7.86570655e+00  7.99266584e+00  8.06504870e+00
  8.21636943e+00  8.27310245e+00  8.34349894e+00  8.38987964e+00
  8.55827472e+00  8.81079219e+00  8.81603938e+00  8.83676648e+00
  8.86981412e+00  9.01528330e+00  9.02793666e+00  9.19167186e+00
  9.36046311e+00  9.44327601e+00  9.82818138e+00  9.82977489e+00
  9.90786838e+00  1.01554429e+01  1.03964143e+01  1.04793858e+01
  1.06321764e+01  1.07055528e+01  1.09688544e+01  1.09884166e+01
  1.12078756e+01  1.12226362e+01  1.14132433e+01  1.15797338e+01
  1.15800955e+01  1.16101081e+01  1.17153243e+01  1.19597739e+01
  1.19837355e+01  1.20366821e+01  1.21478505e+01  1.23118498e+01
  1.23161389e+01  1.23809155e+01  1.28146449e+01  1.28521534e+01
  1.31595651e+01  1.33100329e+01  1.36667400e+01  1.39205920e+01
  1.41289105e+01  1.41467841e+01  1.42321427e+01  1.44659703e+01
  1.61564124e+01  1.62807202e+01  3.23450935e+01  3.25691716e+01]
nelec by numeric integration = 14.000000971219414
    CPU time for vxc     31.48 sec, wall time      0.24 sec
    CPU time for df-vj      2.54 sec, wall time      0.02 sec
E1 = -97.3144088219742  Ecoul = 48.13016727544305  Exc = -6.977450298842866
cycle= 2 E= -32.8285433581433  delta_E= 0.124  |g|= 1.03  |ddm|= 1.99
    CPU time for cycle= 2     88.11 sec, wall time      0.69 sec
  HOMO = -0.244742730299171  LUMO = -0.0609116479109919
  mo_energy =
[-1.06283244e+00 -8.39887222e-01 -5.08746619e-01 -4.52468699e-01
 -3.89094529e-01 -2.83489887e-01 -2.44742730e-01 -6.09116479e-02
 -8.93505945e-03  3.66470562e-02  2.38052445e-01  2.40642800e-01
  2.55832852e-01  2.55939858e-01  3.07553029e-01  3.48389470e-01
  3.69449615e-01  3.82830254e-01  4.40757668e-01  4.83912129e-01
  5.62389134e-01  5.77528854e-01  7.43512329e-01  8.08742068e-01
  9.06772108e-01  9.47317739e-01  9.82418542e-01  9.99588117e-01
  1.11362339e+00  1.15669086e+00  1.17902243e+00  1.22220539e+00
  1.28500860e+00  1.33004485e+00  1.40241799e+00  1.43419095e+00
  1.49683852e+00  1.53582696e+00  1.65190385e+00  1.78295880e+00
  1.81629236e+00  1.89271777e+00  1.92787576e+00  2.07018382e+00
  2.07130076e+00  2.12226530e+00  2.21817106e+00  2.23228030e+00
  2.24664811e+00  2.28843523e+00  2.34589233e+00  2.46894972e+00
  2.53435537e+00  2.54504626e+00  2.59709826e+00  2.66040441e+00
  2.69666338e+00  2.76418657e+00  2.97675931e+00  3.03375043e+00
  3.04888717e+00  3.14037328e+00  3.19418258e+00  3.38380120e+00
  3.45000686e+00  3.63121856e+00  3.67812614e+00  3.76632764e+00
  3.81830811e+00  3.82643056e+00  3.86976327e+00  3.97143414e+00
  3.99592042e+00  4.05792862e+00  4.14547608e+00  4.15385956e+00
  4.33867448e+00  4.34854722e+00  4.44623206e+00  4.45647965e+00
  4.52411310e+00  4.54343481e+00  4.71321442e+00  4.99594460e+00
  5.28788427e+00  5.75013489e+00  5.79983343e+00  5.80237844e+00
  5.82845824e+00  5.95806898e+00  6.32475029e+00  6.32770062e+00
  6.40810219e+00  6.43662000e+00  6.49751190e+00  6.53225592e+00
  6.63188130e+00  6.66319500e+00  6.76078374e+00  6.84145141e+00
  7.14428854e+00  7.32355443e+00  7.32669389e+00  7.35705507e+00
  7.42009446e+00  7.42943667e+00  7.48690290e+00  7.53365614e+00
  7.55042382e+00  7.55633152e+00  7.59170771e+00  7.71777941e+00
  7.75845385e+00  7.83286621e+00  7.94888693e+00  7.97030769e+00
  8.11317804e+00  8.19298828e+00  8.25855938e+00  8.28199149e+00
  8.48480258e+00  8.71956131e+00  8.76438327e+00  8.78198077e+00
  8.82521126e+00  8.88346179e+00  8.97822016e+00  9.07711812e+00
  9.25027094e+00  9.32705442e+00  9.72143988e+00  9.72485579e+00
  9.79956429e+00  1.00405588e+01  1.02598591e+01  1.03445005e+01
  1.05037568e+01  1.05781953e+01  1.08427901e+01  1.08830778e+01
  1.10909420e+01  1.10986245e+01  1.12483984e+01  1.14138268e+01
  1.14259575e+01  1.14448203e+01  1.15527602e+01  1.17989675e+01
  1.18181493e+01  1.18752304e+01  1.19868097e+01  1.21397946e+01
  1.21575625e+01  1.22147215e+01  1.26326180e+01  1.26680347e+01
  1.29905457e+01  1.31419261e+01  1.35170584e+01  1.37667590e+01
  1.39719945e+01  1.39884405e+01  1.40758470e+01  1.43003986e+01
  1.60217104e+01  1.61420623e+01  3.20996868e+01  3.23238625e+01]
nelec by numeric integration = 14.00000107254335
    CPU time for vxc     33.63 sec, wall time      0.26 sec
    CPU time for df-vj      2.56 sec, wall time      0.02 sec
E1 = -100.22602771630562  Ecoul = 51.331144401363005  Exc = -7.466951847890293
cycle= 3 E= -33.0286866756022  delta_E= -0.2  |g|= 0.0755  |ddm|= 1.25
    CPU time for cycle= 3     84.49 sec, wall time      0.66 sec
  HOMO = -0.240056079558308  LUMO = -0.0521029123897289
  mo_energy =
[-1.04904567e+00 -8.35272985e-01 -5.00587873e-01 -4.46984407e-01
 -3.85528172e-01 -2.79126123e-01 -2.40056080e-01 -5.21029124e-02
 -6.94072833e-03  3.88941119e-02  2.38373718e-01  2.42090356e-01
  2.58657039e-01  2.58859730e-01  3.09791102e-01  3.49497078e-01
  3.70143293e-01  3.84178301e-01  4.43399505e-01  4.86919789e-01
  5.64334484e-01  5.80442095e-01  7.46430046e-01  8.11380449e-01
  9.09641165e-01  9.50959055e-01  9.87260691e-01  1.00410436e+00
  1.11700610e+00  1.16108621e+00  1.18455406e+00  1.22531323e+00
  1.28645778e+00  1.33247545e+00  1.40486522e+00  1.43631430e+00
  1.49939003e+00  1.53729015e+00  1.65711132e+00  1.78705001e+00
  1.82239381e+00  1.89781691e+00  1.93103077e+00  2.07426615e+00
  2.07562175e+00  2.12758405e+00  2.22083114e+00  2.23596346e+00
  2.24943715e+00  2.29209949e+00  2.34825744e+00  2.47265669e+00
  2.53959015e+00  2.54891668e+00  2.60135868e+00  2.66448815e+00
  2.70371860e+00  2.76731216e+00  2.98351909e+00  3.03842393e+00
  3.05817586e+00  3.14905400e+00  3.20377444e+00  3.39308961e+00
  3.45400908e+00  3.63724729e+00  3.68388427e+00  3.77177636e+00
  3.82292991e+00  3.83388451e+00  3.87311364e+00  3.97688835e+00
  4.00143343e+00  4.06342071e+00  4.14877942e+00  4.15738864e+00
  4.34558005e+00  4.35344510e+00  4.45405584e+00  4.46243833e+00
  4.52637396e+00  4.54663943e+00  4.71466127e+00  5.00222331e+00
  5.29177541e+00  5.75667313e+00  5.80659376e+00  5.80790708e+00
  5.83506529e+00  5.96378238e+00  6.32985067e+00  6.33256119e+00
  6.41420943e+00  6.44224164e+00  6.50171634e+00  6.53760574e+00
  6.63637385e+00  6.66734093e+00  6.77026551e+00  6.84745723e+00
  7.14975791e+00  7.33028973e+00  7.33139806e+00  7.36213645e+00
  7.42425438e+00  7.43632139e+00  7.49168265e+00  7.53898945e+00
  7.55434741e+00  7.56153584e+00  7.59757078e+00  7.72286259e+00
  7.76372868e+00  7.83779723e+00  7.95340728e+00  7.97713170e+00
  8.12068051e+00  8.19963556e+00  8.26500881e+00  8.29003834e+00
  8.49293335e+00  8.72735854e+00  8.77064642e+00  8.78796852e+00
  8.83202848e+00  8.89457378e+00  8.98548515e+00  9.08620807e+00
  9.26134774e+00  9.33651883e+00  9.73038219e+00  9.73257463e+00
  9.80684921e+00  1.00487863e+01  1.02659651e+01  1.03512078e+01
  1.05100325e+01  1.05845516e+01  1.08502357e+01  1.08922837e+01
  1.11008687e+01  1.11070138e+01  1.12552625e+01  1.14211453e+01
  1.14326983e+01  1.14514712e+01  1.15572177e+01  1.18046289e+01
  1.18247988e+01  1.18810336e+01  1.19908724e+01  1.21470368e+01
  1.21582197e+01  1.22177830e+01  1.26387164e+01  1.26757439e+01
  1.29953617e+01  1.31476754e+01  1.35231663e+01  1.37766669e+01
  1.39776566e+01  1.39941272e+01  1.40808972e+01  1.43066527e+01
  1.60278988e+01  1.61485606e+01  3.21044211e+01  3.23285299e+01]
nelec by numeric integration = 14.000001041699226
    CPU time for vxc     38.76 sec, wall time      0.31 sec
    CPU time for df-vj     10.56 sec, wall time      0.08 sec
E1 = -100.1223477203044  Ecoul = 51.2158284611022  Exc = -7.456341553671578
cycle= 4 E= -33.029712325643  delta_E= -0.00103  |g|= 0.0103  |ddm|= 0.0665
    CPU time for cycle= 4     96.83 sec, wall time      0.76 sec
  HOMO = -0.239649877532662  LUMO = -0.0517437922507843
  mo_energy =
[-1.04899518e+00 -8.34077233e-01 -4.99902801e-01 -4.46770838e-01
 -3.84759030e-01 -2.78684619e-01 -2.39649878e-01 -5.17437923e-02
 -7.13627848e-03  3.88639131e-02  2.38525728e-01  2.41943660e-01
  2.58597533e-01  2.58789268e-01  3.09672935e-01  3.49406790e-01
  3.70248875e-01  3.84336479e-01  4.43156018e-01  4.86831663e-01
  5.64170380e-01  5.80427218e-01  7.46406153e-01  8.11226956e-01
  9.09513921e-01  9.50854581e-01  9.87402421e-01  1.00414397e+00
  1.11715849e+00  1.16127681e+00  1.18435470e+00  1.22553629e+00
  1.28698990e+00  1.33310212e+00  1.40535491e+00  1.43691680e+00
  1.49976233e+00  1.53787678e+00  1.65722369e+00  1.78715134e+00
  1.82252516e+00  1.89775930e+00  1.93129800e+00  2.07411111e+00
  2.07548251e+00  2.12751773e+00  2.22079952e+00  2.23606610e+00
  2.24962165e+00  2.29200318e+00  2.34830161e+00  2.47268428e+00
  2.53965064e+00  2.54888986e+00  2.60167473e+00  2.66450687e+00
  2.70383940e+00  2.76772319e+00  2.98371828e+00  3.03862613e+00
  3.05817224e+00  3.14913077e+00  3.20373935e+00  3.39310358e+00
  3.45469361e+00  3.63754125e+00  3.68404120e+00  3.77233648e+00
  3.82306990e+00  3.83428718e+00  3.87354925e+00  3.97741588e+00
  4.00202982e+00  4.06375907e+00  4.14951473e+00  4.15802193e+00
  4.34597066e+00  4.35379107e+00  4.45424763e+00  4.46258490e+00
  4.52731905e+00  4.54752111e+00  4.71608242e+00  5.00270141e+00
  5.29237762e+00  5.75691776e+00  5.80682477e+00  5.80820396e+00
  5.83530398e+00  5.96430076e+00  6.33019657e+00  6.33288200e+00
  6.41467224e+00  6.44252112e+00  6.50246675e+00  6.53802556e+00
  6.63662283e+00  6.66781846e+00  6.77053833e+00  6.84787243e+00
  7.15025784e+00  7.33096891e+00  7.33152287e+00  7.36237747e+00
  7.42418682e+00  7.43682343e+00  7.49166644e+00  7.53911749e+00
  7.55451677e+00  7.56196874e+00  7.59817067e+00  7.72340457e+00
  7.76405650e+00  7.83845630e+00  7.95396118e+00  7.97769908e+00
  8.12119178e+00  8.20007304e+00  8.26546008e+00  8.29053851e+00
  8.49323521e+00  8.72776501e+00  8.77116050e+00  8.78835683e+00
  8.83233397e+00  8.89474274e+00  8.98591022e+00  9.08658763e+00
  9.26150833e+00  9.33683040e+00  9.73078826e+00  9.73303664e+00
  9.80739432e+00  1.00490919e+01  1.02661458e+01  1.03515547e+01
  1.05101733e+01  1.05847221e+01  1.08508144e+01  1.08926990e+01
  1.11013032e+01  1.11076367e+01  1.12558087e+01  1.14217238e+01
  1.14333112e+01  1.14520890e+01  1.15580711e+01  1.18051055e+01
  1.18255359e+01  1.18814739e+01  1.19920741e+01  1.21476793e+01
  1.21597184e+01  1.22189325e+01  1.26394338e+01  1.26762767e+01
  1.29962772e+01  1.31482827e+01  1.35239928e+01  1.37769980e+01
  1.39779923e+01  1.39944244e+01  1.40816720e+01  1.43075363e+01
  1.60283900e+01  1.61490525e+01  3.21048673e+01  3.23289738e+01]
nelec by numeric integration = 14.000001043717548
    CPU time for vxc     37.24 sec, wall time      0.29 sec
    CPU time for df-vj      7.97 sec, wall time      0.06 sec
E1 = -100.11944735546165  Ecoul = 51.21136487744643  Exc = -7.454798880418917
cycle= 5 E= -33.0297328712034  delta_E= -2.05e-05  |g|= 0.0015  |ddm|= 0.0103
    CPU time for cycle= 5    105.41 sec, wall time      0.83 sec
  HOMO = -0.239731325510269  LUMO = -0.0518488279689197
  mo_energy =
[-1.04913341e+00 -8.34333041e-01 -5.00043042e-01 -4.46781075e-01
 -3.84812969e-01 -2.78768703e-01 -2.39731326e-01 -5.18488280e-02
 -7.30891695e-03  3.87197308e-02  2.38474317e-01  2.41898123e-01
  2.58469164e-01  2.58634969e-01  3.09528832e-01  3.49315235e-01
  3.70172525e-01  3.84245573e-01  4.43003888e-01  4.86649083e-01
  5.64012990e-01  5.80282351e-01  7.46230432e-01  8.11170012e-01
  9.09489594e-01  9.50645260e-01  9.87232935e-01  1.00402822e+00
  1.11706481e+00  1.16117357e+00  1.18429546e+00  1.22548790e+00
  1.28691087e+00  1.33303331e+00  1.40523446e+00  1.43680653e+00
  1.49971802e+00  1.53782681e+00  1.65707694e+00  1.78704599e+00
  1.82242260e+00  1.89755031e+00  1.93113834e+00  2.07387801e+00
  2.07525623e+00  2.12732588e+00  2.22057964e+00  2.23597693e+00
  2.24945790e+00  2.29181288e+00  2.34811590e+00  2.47247677e+00
  2.53954046e+00  2.54867498e+00  2.60152358e+00  2.66431838e+00
  2.70364590e+00  2.76758580e+00  2.98355010e+00  3.03842777e+00
  3.05808681e+00  3.14902644e+00  3.20366404e+00  3.39305556e+00
  3.45460103e+00  3.63752715e+00  3.68399193e+00  3.77223367e+00
  3.82306114e+00  3.83419176e+00  3.87353257e+00  3.97737345e+00
  4.00194688e+00  4.06368110e+00  4.14940643e+00  4.15797662e+00
  4.34584570e+00  4.35366180e+00  4.45411328e+00  4.46244486e+00
  4.52722321e+00  4.54740904e+00  4.71596093e+00  5.00254007e+00
  5.29220410e+00  5.75667364e+00  5.80658413e+00  5.80794561e+00
  5.83505933e+00  5.96415266e+00  6.33001768e+00  6.33273521e+00
  6.41445903e+00  6.44236635e+00  6.50228359e+00  6.53781664e+00
  6.63652832e+00  6.66767120e+00  6.77030581e+00  6.84767931e+00
  7.14993491e+00  7.33066565e+00  7.33123585e+00  7.36209175e+00
  7.42390476e+00  7.43652303e+00  7.49139357e+00  7.53884787e+00
  7.55423951e+00  7.56166642e+00  7.59790854e+00  7.72311615e+00
  7.76376885e+00  7.83818870e+00  7.95369935e+00  7.97757772e+00
  8.12106157e+00  8.19989858e+00  8.26531047e+00  8.29042680e+00
  8.49303672e+00  8.72762100e+00  8.77091718e+00  8.78810016e+00
  8.83208372e+00  8.89463998e+00  8.98566512e+00  9.08647414e+00
  9.26139214e+00  9.33677489e+00  9.73065726e+00  9.73289451e+00
  9.80729502e+00  1.00490062e+01  1.02661511e+01  1.03515198e+01
  1.05101264e+01  1.05846697e+01  1.08507008e+01  1.08924892e+01
  1.11011129e+01  1.11074485e+01  1.12557376e+01  1.14216552e+01
  1.14332029e+01  1.14520055e+01  1.15579812e+01  1.18049515e+01
  1.18254299e+01  1.18813290e+01  1.19919244e+01  1.21475853e+01
  1.21595737e+01  1.22188300e+01  1.26393141e+01  1.26761847e+01
  1.29961444e+01  1.31481469e+01  1.35237756e+01  1.37768338e+01
  1.39778720e+01  1.39943043e+01  1.40815482e+01  1.43073969e+01
  1.60282021e+01  1.61488775e+01  3.21047698e+01  3.23288784e+01]
nelec by numeric integration = 14.000001044004742
    CPU time for vxc     34.18 sec, wall time      0.27 sec
    CPU time for df-vj      8.35 sec, wall time      0.07 sec
E1 = -100.118700043613  Ecoul = 51.210551433055926  Exc = -7.4547331815942455
cycle= 6 E= -33.0297333049206  delta_E= -4.34e-07  |g|= 0.000319  |ddm|= 0.00183
    CPU time for cycle= 6    107.14 sec, wall time      0.85 sec
  HOMO = -0.239720180173082  LUMO = -0.0518394647904826
  mo_energy =
[-1.04911972e+00 -8.34305354e-01 -5.00037719e-01 -4.46778299e-01
 -3.84806707e-01 -2.78750051e-01 -2.39720180e-01 -5.18394648e-02
 -7.31634370e-03  3.87111374e-02  2.38459793e-01  2.41875125e-01
  2.58458786e-01  2.58629597e-01  3.09521583e-01  3.49300739e-01
  3.70157666e-01  3.84235420e-01  4.42989254e-01  4.86641819e-01
  5.63999343e-01  5.80274283e-01  7.46223485e-01  8.11154891e-01
  9.09467952e-01  9.50638197e-01  9.87229709e-01  1.00401711e+00
  1.11705461e+00  1.16116596e+00  1.18428195e+00  1.22547479e+00
  1.28690572e+00  1.33302646e+00  1.40522861e+00  1.43680614e+00
  1.49970613e+00  1.53781914e+00  1.65708588e+00  1.78704762e+00
  1.82242378e+00  1.89755139e+00  1.93113030e+00  2.07387359e+00
  2.07525552e+00  2.12732617e+00  2.22057237e+00  2.23597033e+00
  2.24945270e+00  2.29180490e+00  2.34810235e+00  2.47247118e+00
  2.53952879e+00  2.54866152e+00  2.60151609e+00  2.66430994e+00
  2.70364529e+00  2.76758572e+00  2.98355053e+00  3.03842838e+00
  3.05808338e+00  3.14902505e+00  3.20365734e+00  3.39304615e+00
  3.45459937e+00  3.63751523e+00  3.68398893e+00  3.77224647e+00
  3.82305524e+00  3.83419790e+00  3.87352690e+00  3.97736967e+00
  4.00195142e+00  4.06368661e+00  4.14941122e+00  4.15797095e+00
  4.34584717e+00  4.35366061e+00  4.45411028e+00  4.46244660e+00
  4.52722080e+00  4.54740724e+00  4.71596883e+00  5.00254423e+00
  5.29220977e+00  5.75668254e+00  5.80659447e+00  5.80795635e+00
  5.83506988e+00  5.96415518e+00  6.33003311e+00  6.33275097e+00
  6.41447273e+00  6.44237917e+00  6.50229813e+00  6.53782256e+00
  6.63652782e+00  6.66768310e+00  6.77032186e+00  6.84768994e+00
  7.14994852e+00  7.33069047e+00  7.33124469e+00  7.36210350e+00
  7.42390528e+00  7.43654537e+00  7.49139526e+00  7.53884831e+00
  7.55423950e+00  7.56167563e+00  7.59792760e+00  7.72312617e+00
  7.76377551e+00  7.83819922e+00  7.95371183e+00  7.97757971e+00
  8.12107211e+00  8.19990131e+00  8.26531268e+00  8.29043385e+00
  8.49304661e+00  8.72763137e+00  8.77092653e+00  8.78810978e+00
  8.83209442e+00  8.89464985e+00  8.98567726e+00  9.08648010e+00
  9.26139948e+00  9.33677134e+00  9.73066565e+00  9.73290324e+00
  9.80729496e+00  1.00490102e+01  1.02661519e+01  1.03515202e+01
  1.05101297e+01  1.05846762e+01  1.08507105e+01  1.08925063e+01
  1.11011282e+01  1.11074645e+01  1.12557523e+01  1.14216739e+01
  1.14332240e+01  1.14520247e+01  1.15580035e+01  1.18049750e+01
  1.18254518e+01  1.18813526e+01  1.19919439e+01  1.21476136e+01
  1.21596030e+01  1.22188493e+01  1.26393467e+01  1.26762138e+01
  1.29961745e+01  1.31481752e+01  1.35238019e+01  1.37768583e+01
  1.39778940e+01  1.39943262e+01  1.40815698e+01  1.43074215e+01
  1.60282228e+01  1.61488973e+01  3.21048275e+01  3.23289357e+01]
nelec by numeric integration = 14.00000104392277
    CPU time for vxc     38.13 sec, wall time      0.30 sec
    CPU time for df-vj      7.93 sec, wall time      0.06 sec
E1 = -100.1181259211629  Ecoul = 51.209858383579146  Exc = -7.4546142727522735
cycle= 7 E= -33.0297333231053  delta_E= -1.82e-08  |g|= 6.41e-05  |ddm|= 0.000518
    CPU time for cycle= 7    108.75 sec, wall time      0.87 sec
  HOMO = -0.239724190033285  LUMO = -0.0518446749875609
  mo_energy =
[-1.04912517e+00 -8.34309821e-01 -5.00041614e-01 -4.46785773e-01
 -3.84811933e-01 -2.78757445e-01 -2.39724190e-01 -5.18446750e-02
 -7.31927603e-03  3.87080458e-02  2.38456979e-01  2.41873445e-01
  2.58456606e-01  2.58626796e-01  3.09518386e-01  3.49298384e-01
  3.70155118e-01  3.84233810e-01  4.42987046e-01  4.86638419e-01
  5.63996516e-01  5.80271000e-01  7.46220207e-01  8.11151524e-01
  9.09465824e-01  9.50635131e-01  9.87226620e-01  1.00401531e+00
  1.11705109e+00  1.16116232e+00  1.18427896e+00  1.22547204e+00
  1.28690204e+00  1.33302321e+00  1.40522577e+00  1.43680210e+00
  1.49970299e+00  1.53781463e+00  1.65708106e+00  1.78704436e+00
  1.82242042e+00  1.89754796e+00  1.93112815e+00  2.07387120e+00
  2.07525203e+00  2.12732192e+00  2.22056969e+00  2.23596669e+00
  2.24944937e+00  2.29180177e+00  2.34809997e+00  2.47246785e+00
  2.53952599e+00  2.54865947e+00  2.60151345e+00  2.66430764e+00
  2.70364071e+00  2.76758171e+00  2.98354629e+00  3.03842459e+00
  3.05807880e+00  3.14902054e+00  3.20365314e+00  3.39304179e+00
  3.45459546e+00  3.63751178e+00  3.68398369e+00  3.77223983e+00
  3.82305074e+00  3.83419166e+00  3.87352249e+00  3.97736470e+00
  4.00194671e+00  4.06367997e+00  4.14940684e+00  4.15796649e+00
  4.34584271e+00  4.35365745e+00  4.45410735e+00  4.46244237e+00
  4.52721671e+00  4.54740331e+00  4.71596317e+00  5.00253997e+00
  5.29220577e+00  5.75667990e+00  5.80659132e+00  5.80795328e+00
  5.83506645e+00  5.96415171e+00  6.33002772e+00  6.33274628e+00
  6.41446882e+00  6.44237549e+00  6.50229324e+00  6.53781909e+00
  6.63652374e+00  6.66767780e+00  6.77031798e+00  6.84768591e+00
  7.14994581e+00  7.33068671e+00  7.33124170e+00  7.36210057e+00
  7.42390218e+00  7.43654211e+00  7.49139226e+00  7.53884609e+00
  7.55423662e+00  7.56167318e+00  7.59792369e+00  7.72312410e+00
  7.76377351e+00  7.83819679e+00  7.95370878e+00  7.97757499e+00
  8.12106647e+00  8.19989704e+00  8.26530816e+00  8.29042861e+00
  8.49304225e+00  8.72762625e+00  8.77092331e+00  8.78810726e+00
  8.83209140e+00  8.89464446e+00  8.98567322e+00  9.08647559e+00
  9.26139385e+00  9.33676710e+00  9.73066022e+00  9.73289832e+00
  9.80729080e+00  1.00490051e+01  1.02661451e+01  1.03515149e+01
  1.05101245e+01  1.05846699e+01  1.08507047e+01  1.08925011e+01
  1.11011235e+01  1.11074599e+01  1.12557461e+01  1.14216670e+01
  1.14332168e+01  1.14520177e+01  1.15579962e+01  1.18049693e+01
  1.18254453e+01  1.18813463e+01  1.19919379e+01  1.21476049e+01
  1.21595957e+01  1.22188439e+01  1.26393398e+01  1.26762069e+01
  1.29961666e+01  1.31481687e+01  1.35237965e+01  1.37768518e+01
  1.39778879e+01  1.39943203e+01  1.40815631e+01  1.43074150e+01
  1.60282172e+01  1.61488917e+01  3.21048186e+01  3.23289268e+01]
nelec by numeric integration = 14.000001043937047
    CPU time for vxc     38.54 sec, wall time      0.31 sec
    CPU time for df-vj      8.09 sec, wall time      0.06 sec
E1 = -100.11819999274528  Ecoul = 51.20994672259534  Exc = -7.4546285409837205
cycle= 8 E= -33.0297333239029  delta_E= -7.98e-10  |g|= 7.17e-06  |ddm|= 9.22e-05
    CPU time for cycle= 8    102.08 sec, wall time      0.81 sec
  HOMO = -0.239726869525941  LUMO = -0.0518469378342091
  mo_energy =
[-1.04912768e+00 -8.34312381e-01 -5.00043878e-01 -4.46787676e-01
 -3.84814327e-01 -2.78759734e-01 -2.39726870e-01 -5.18469378e-02
 -7.31995115e-03  3.87071110e-02  2.38456282e-01  2.41872596e-01
  2.58455940e-01  2.58626000e-01  3.09517503e-01  3.49297493e-01
  3.70154445e-01  3.84233103e-01  4.42986388e-01  4.86637797e-01
  5.63995909e-01  5.80270297e-01  7.46219257e-01  8.11150630e-01
  9.09464712e-01  9.50634134e-01  9.87225643e-01  1.00401430e+00
  1.11705012e+00  1.16116120e+00  1.18427781e+00  1.22547089e+00
  1.28690087e+00  1.33302187e+00  1.40522469e+00  1.43680087e+00
  1.49970185e+00  1.53781344e+00  1.65707957e+00  1.78704273e+00
  1.82241871e+00  1.89754710e+00  1.93112715e+00  2.07387040e+00
  2.07525132e+00  2.12732082e+00  2.22056897e+00  2.23596541e+00
  2.24944840e+00  2.29180066e+00  2.34809918e+00  2.47246681e+00
  2.53952483e+00  2.54865850e+00  2.60151224e+00  2.66430652e+00
  2.70363936e+00  2.76758041e+00  2.98354491e+00  3.03842326e+00
  3.05807721e+00  3.14901889e+00  3.20365153e+00  3.39304011e+00
  3.45459375e+00  3.63750992e+00  3.68398219e+00  3.77223781e+00
  3.82304876e+00  3.83418979e+00  3.87352065e+00  3.97736267e+00
  4.00194439e+00  4.06367815e+00  4.14940477e+00  4.15796461e+00
  4.34584113e+00  4.35365572e+00  4.45410551e+00  4.46244080e+00
  4.52721508e+00  4.54740163e+00  4.71596117e+00  5.00253825e+00
  5.29220414e+00  5.75667878e+00  5.80659017e+00  5.80795235e+00
  5.83506538e+00  5.96414996e+00  6.33002583e+00  6.33274389e+00
  6.41446697e+00  6.44237320e+00  6.50229135e+00  6.53781762e+00
  6.63652203e+00  6.66767593e+00  6.77031620e+00  6.84768405e+00
  7.14994421e+00  7.33068464e+00  7.33124056e+00  7.36209912e+00
  7.42390130e+00  7.43654049e+00  7.49139133e+00  7.53884494e+00
  7.55423560e+00  7.56167206e+00  7.59792209e+00  7.72312304e+00
  7.76377245e+00  7.83819558e+00  7.95370755e+00  7.97757315e+00
  8.12106442e+00  8.19989530e+00  8.26530640e+00  8.29042650e+00
  8.49304050e+00  8.72762417e+00  8.77092185e+00  8.78810581e+00
  8.83208993e+00  8.89464206e+00  8.98567181e+00  9.08647335e+00
  9.26139179e+00  9.33676493e+00  9.73065813e+00  9.73289625e+00
  9.80728870e+00  1.00490029e+01  1.02661428e+01  1.03515125e+01
  1.05101222e+01  1.05846677e+01  1.08507023e+01  1.08924989e+01
  1.11011211e+01  1.11074574e+01  1.12557431e+01  1.14216640e+01
  1.14332141e+01  1.14520147e+01  1.15579933e+01  1.18049663e+01
  1.18254423e+01  1.18813433e+01  1.19919349e+01  1.21476020e+01
  1.21595928e+01  1.22188408e+01  1.26393364e+01  1.26762035e+01
  1.29961636e+01  1.31481655e+01  1.35237936e+01  1.37768490e+01
  1.39778850e+01  1.39943173e+01  1.40815603e+01  1.43074120e+01
  1.60282146e+01  1.61488890e+01  3.21048141e+01  3.23289223e+01]
nelec by numeric integration = 14.000001043938168
    CPU time for vxc     43.71 sec, wall time      0.38 sec
    CPU time for df-vj     10.05 sec, wall time      0.08 sec
E1 = -100.11824165217172  Ecoul = 51.20999619522021  Exc = -7.454636354173445
Extra cycle  E= -33.0297333238942  delta_E= 8.7e-12  |g|= 1e-05  |ddm|= 2.09e-05
    CPU time for scf_cycle   1131.59 sec, wall time      9.24 sec
    CPU time for SCF   1131.62 sec, wall time      9.24 sec
converged SCF energy = -33.0297333238942
