#INFO: **** input file is /home/nkousuke/lustre/toBeSync/turboRVB/05turbo-genius-development/turbogenius_paper/04data/sanity_checks/03pyscf_HF_turbo_VMC_via_trexio/00open_boundary/results/B/pyscf-HF-workflow/run.py ****

from pyscf_wrapper import Pyscf_wrapper

# input variables
pyscf_chkfile="pyscf.chk"
structure_file="B.xyz"

# input variables
omp_num_threads=128
charge=0
spin=1
basis="ccecp-ccpv6z"
ecp="ccecp"
scf_method="HF"
dft_xc="NA"
solver_newton=False
MP2_flag=False
CCSD_flag=False
pyscf_output="out.pyscf"
twist_average=False
exp_to_discard=0.0
kpt=[0.0, 0.0, 0.0]
kpt_grid=[1, 1, 1]
smearing_method="fermi"
smearing_sigma=0.0

pyscf_calc=Pyscf_wrapper(
                        structure_file=structure_file,
                        chkfile=pyscf_chkfile,
                        )

pyscf_calc.run_pyscf(
                  omp_num_threads=omp_num_threads,
                  charge=charge,
                  spin=spin,
                  basis=basis,
                  ecp=ecp,
                  scf_method=scf_method,
                  dft_xc=dft_xc,
                  solver_newton=solver_newton,
                  MP2_flag=MP2_flag,
                  CCSD_flag=CCSD_flag,
                  pyscf_output=pyscf_output,
                  twist_average=twist_average,
                  exp_to_discard=exp_to_discard,
                  kpt=kpt,
                  kpt_grid=kpt_grid,
                  smearing_method=smearing_method,
                  smearing_sigma=smearing_sigma
                  )
                #INFO: ******************** input file end ********************


System: uname_result(system='Linux', node='spcc-238', release='5.4.0-66-generic', version='#74-Ubuntu SMP Wed Jan 27 22:54:38 UTC 2021', machine='x86_64', processor='x86_64')  Threads 128
Python 3.7.3 (default, Mar 27 2019, 22:11:17) 
[GCC 7.3.0]
numpy 1.20.1  scipy 1.7.3
Date: Mon Dec 19 18:09:21 2022
PySCF version 2.0.1
PySCF path  /home/nkousuke/application/anaconda3/lib/python3.7/site-packages/pyscf

[CONFIG] conf_file /home/nkousuke/.pyscf_conf.py
[INPUT] verbose = 5
[INPUT] max_memory = 506274.12109375 
[INPUT] num. atoms = 1
[INPUT] num. electrons = 3
[INPUT] charge = 0
[INPUT] spin (= nelec alpha-beta = 2S) = 1
[INPUT] symmetry False subgroup None
[INPUT] Mole.unit = A
[INPUT]  1 B      0.000000000000   0.000000000000   0.000000000000 AA    0.000000000000   0.000000000000   0.000000000000 Bohr
[INPUT] ---------------- BASIS SET ---------------- 
[INPUT] l, kappa, [nprim/nctr], expnt,             c_1 c_2 ...
[INPUT] B
[INPUT] 0    0    [9    /1   ]  11.7605           -0.0036757
                                5.15052           0.0250517
                                2.578276          -0.1249228
                                1.290648          -0.0662874
                                0.64608           0.1007341
                                0.323418          0.3375492
                                0.161898          0.4308431
                                0.081044          0.2486558
                                0.040569          0.0317295
[INPUT] 0    0    [1    /1   ]  0.066915             1
[INPUT] 0    0    [1    /1   ]  0.165446             1
[INPUT] 0    0    [1    /1   ]  0.338547             1
[INPUT] 0    0    [1    /1   ]  0.820708             1
[INPUT] 0    0    [1    /1   ]  2.519425             1
[INPUT] 1    0    [9    /1   ]  7.470701          0.0047397
                                3.735743          0.0376009
                                1.868068          0.05106
                                0.934132          0.1456587
                                0.467115          0.2237933
                                0.233582          0.3199467
                                0.116803          0.2850185
                                0.058408          0.1448808
                                0.029207          0.0176962
[INPUT] 1    0    [1    /1   ]  0.053986             1
[INPUT] 1    0    [1    /1   ]  0.133676             1
[INPUT] 1    0    [1    /1   ]  0.282933             1
[INPUT] 1    0    [1    /1   ]  0.728159             1
[INPUT] 1    0    [1    /1   ]  0.913979             1
[INPUT] 2    0    [1    /1   ]  0.11564              1
[INPUT] 2    0    [1    /1   ]  0.293309             1
[INPUT] 2    0    [1    /1   ]  0.66633              1
[INPUT] 2    0    [1    /1   ]  1.15264              1
[INPUT] 2    0    [1    /1   ]  2.88057              1
[INPUT] 3    0    [1    /1   ]  0.192532             1
[INPUT] 3    0    [1    /1   ]  0.448415             1
[INPUT] 3    0    [1    /1   ]  0.915789             1
[INPUT] 3    0    [1    /1   ]  1.499448             1
[INPUT] 4    0    [1    /1   ]  0.372788             1
[INPUT] 4    0    [1    /1   ]  0.859573             1
[INPUT] 4    0    [1    /1   ]  1.473809             1
[INPUT] 5    0    [1    /1   ]  0.583223             1
[INPUT] 5    0    [1    /1   ]  1.271399             1
[INPUT] 6    0    [1    /1   ]  0.969919             1

nuclear repulsion = 0
number of shells = 27
number of NR pGTOs = 171
number of NR cGTOs = 139
basis = ccecp-ccpv6z
ecp = ccecp
CPU time:         6.04


******** <class 'pyscf.scf.rohf.ROHF'> ********
method = ROHF-RHF
initial guess = minao
damping factor = 0
level_shift factor = 0
DIIS = <class 'pyscf.scf.diis.CDIIS'>
diis_start_cycle = 1
diis_space = 8
SCF conv_tol = 1e-09
SCF conv_tol_grad = None
SCF max_cycles = 200
direct_scf = True
direct_scf_tol = 1e-13
chkfile to save SCF result = pyscf.chk
max_memory 506274 MB (current use 106 MB)
num. doubly occ = 1  num. singly occ = 1
Set gradient conv threshold to 3.16228e-05
E1 = -3.7794098135727294  Ecoul = 1.4084380866595336
init E= -2.3709717269132
cond(S) = 75208.11250077229
    CPU time for initialize scf    244.02 sec, wall time      2.83 sec

WARN: HOMO 0.000717768987023111 >= LUMO 0.000717768987023848

                  Roothaan           | alpha              | beta
  Highest 2-occ = -0.493709743512688 | -0.493709743512688 | -0.493709743512688
  Lowest 0-occ =  0.000717768987023848 | 0.000717768987024122 | 0.000717768987024122
  1-occ =         0.000717768987023111 | 0.000717768987024096 | 0.000717768987024096
  Roothaan mo_energy =
[-4.93709744e-01  7.17768987e-04  7.17768987e-04  7.17768987e-04
  1.73976117e-01  1.85152833e-01  1.85152833e-01  1.85152833e-01
  3.27008264e-01  3.27008264e-01  3.27008264e-01  3.27008264e-01
  3.27008264e-01  6.48418256e-01  6.48418256e-01  6.48418256e-01
  7.41690728e-01  7.41690728e-01  7.41690728e-01  7.41690728e-01
  7.41690728e-01  7.41690728e-01  7.41690728e-01  8.54651403e-01
  9.83391927e-01  9.83391927e-01  9.83391927e-01  9.83391927e-01
  9.83391927e-01  1.68080859e+00  1.68080859e+00  1.68080859e+00
  1.80487710e+00  1.80487710e+00  1.80487710e+00  1.80487710e+00
  1.80487710e+00  1.80487710e+00  1.80487710e+00  1.80487710e+00
  1.80487710e+00  2.02734694e+00  2.02734694e+00  2.02734694e+00
  2.02734694e+00  2.02734694e+00  2.02734694e+00  2.02734694e+00
  2.42998098e+00  2.42998098e+00  2.42998098e+00  2.42998098e+00
  2.42998098e+00  2.62763975e+00  3.45960614e+00  3.45960614e+00
  3.45960614e+00  3.45960614e+00  3.45960614e+00  3.45960614e+00
  3.45960614e+00  3.45960614e+00  3.45960614e+00  3.45960614e+00
  3.45960614e+00  3.94450849e+00  3.94450849e+00  3.94450849e+00
  4.60016453e+00  4.60016453e+00  4.60016453e+00  4.60016453e+00
  4.60016453e+00  4.60016453e+00  4.60016453e+00  4.71379475e+00
  4.71379475e+00  4.71379475e+00  4.71379475e+00  4.71379475e+00
  4.71379475e+00  4.71379475e+00  4.71379475e+00  4.71379475e+00
  5.43570966e+00  5.43570966e+00  5.43570966e+00  5.43570966e+00
  5.43570966e+00  6.76008320e+00  7.00874405e+00  7.00874405e+00
  7.00874405e+00  7.00874405e+00  7.00874405e+00  7.00874405e+00
  7.00874405e+00  7.00874405e+00  7.00874405e+00  7.00874405e+00
  7.00874405e+00  7.00874405e+00  7.00874405e+00  8.95295222e+00
  8.95295222e+00  8.95295222e+00  8.95295222e+00  8.95295222e+00
  8.95295222e+00  8.95295222e+00  8.95295222e+00  8.95295222e+00
  8.95295222e+00  8.95295222e+00  9.04135561e+00  9.04135561e+00
  9.04135561e+00  9.50166615e+00  9.50166615e+00  9.50166615e+00
  9.50166615e+00  9.50166615e+00  9.50166615e+00  9.50166615e+00
  1.02589419e+01  1.02589419e+01  1.02589419e+01  1.02589419e+01
  1.02589419e+01  1.02589419e+01  1.02589419e+01  1.02589419e+01
  1.02589419e+01  1.24138808e+01  1.24138808e+01  1.24138808e+01
  1.24138808e+01  1.24138808e+01  1.70015285e+01]
E1 = -3.6188857046723024  Ecoul = 1.1091156593030653
cycle= 1 E= -2.50977004536924  delta_E= -0.139  |g|= 0.105  |ddm|= 0.708
    CPU time for cycle= 1     49.56 sec, wall time      0.47 sec
  HOMO = -0.145303731096312  LUMO = -0.00239151140901568
                  Roothaan           | alpha              | beta
  Highest 2-occ = -0.559966253948646 | -0.594291416967081 | -0.525641090930211
  Lowest 0-occ =  -0.00239151140901568 | -0.0100834314337437 | 0.0053004086157168
  1-occ =         -0.145303731096312 | -0.296570688622517 | 0.0499195052948676
  Roothaan mo_energy =
[-5.59966254e-01 -1.45303731e-01 -2.39151141e-03 -2.39151141e-03
  1.52794446e-01  1.67615320e-01  1.67615320e-01  1.81950622e-01
  3.03611523e-01  3.03611523e-01  3.08288058e-01  3.08288058e-01
  3.09929110e-01  6.04462241e-01  6.04462241e-01  6.14854875e-01
  7.08198802e-01  7.08198802e-01  7.19044592e-01  7.19044592e-01
  7.25992487e-01  7.25992487e-01  7.28332016e-01  8.08368927e-01
  9.29939059e-01  9.29939059e-01  9.41816033e-01  9.41816033e-01
  9.46094669e-01  1.60876557e+00  1.60876557e+00  1.62760035e+00
  1.74922274e+00  1.74922274e+00  1.76229346e+00  1.76229346e+00
  1.77170238e+00  1.77170238e+00  1.77737744e+00  1.77737744e+00
  1.77927413e+00  1.95910997e+00  1.95910997e+00  1.97468420e+00
  1.97468420e+00  1.98432421e+00  1.98432421e+00  1.98758672e+00
  2.34556579e+00  2.34556579e+00  2.36300584e+00  2.36300584e+00
  2.36887210e+00  2.54814372e+00  3.38580999e+00  3.38580999e+00
  3.39889221e+00  3.39889221e+00  3.40913426e+00  3.40913426e+00
  3.41648676e+00  3.41648676e+00  3.42091322e+00  3.42091322e+00
  3.42239122e+00  3.84481897e+00  3.84481897e+00  3.86921099e+00
  4.50037062e+00  4.50037062e+00  4.51802407e+00  4.51802407e+00
  4.52883519e+00  4.52883519e+00  4.53248309e+00  4.61858789e+00
  4.61858789e+00  4.63428323e+00  4.63428323e+00  4.64548286e+00
  4.64548286e+00  4.65219980e+00  4.65219980e+00  4.65443848e+00
  5.32339100e+00  5.32339100e+00  5.34273299e+00  5.34273299e+00
  5.34929423e+00  6.64895482e+00  6.90956343e+00  6.90956343e+00
  6.92209590e+00  6.92209590e+00  6.93238886e+00  6.93238886e+00
  6.94041913e+00  6.94041913e+00  6.94616835e+00  6.94616835e+00
  6.94962325e+00  6.94962325e+00  6.95077578e+00  8.83615044e+00
  8.83615044e+00  8.84998436e+00  8.84998436e+00  8.86077440e+00
  8.86077440e+00  8.86849796e+00  8.86849796e+00  8.87313869e+00
  8.87313869e+00  8.87468671e+00  8.91600971e+00  8.91600971e+00
  8.93589694e+00  9.37517446e+00  9.37517446e+00  9.39138708e+00
  9.39138708e+00  9.40130132e+00  9.40130132e+00  9.40464668e+00
  1.01330868e+01  1.01330868e+01  1.01479114e+01  1.01479114e+01
  1.01585146e+01  1.01585146e+01  1.01648822e+01  1.01648822e+01
  1.01670057e+01  1.22771246e+01  1.22771246e+01  1.22929925e+01
  1.22929925e+01  1.22983241e+01  1.68670904e+01]
E1 = -3.7679242730940246  Ecoul = 1.230882687163392
cycle= 2 E= -2.53704158593063  delta_E= -0.0273  |g|= 0.0399  |ddm|= 0.652
    CPU time for cycle= 2    145.30 sec, wall time      1.15 sec
  HOMO = -0.0975193068789254  LUMO = 0.0353080248393449
                  Roothaan           | alpha              | beta
  Highest 2-occ = -0.506602789359693 | -0.547668781640421 | -0.457350151749665
  Lowest 0-occ =  0.0353080248393449 | 0.0305885625863053 | 0.0451989223288281
  1-occ =         -0.0975193068789254 | -0.302175077943171 |  0.124644628414121
  Roothaan mo_energy =
[-0.50660279 -0.09751931  0.03530802  0.03530802  0.16923618  0.17431502
  0.19220706  0.19220706  0.31975049  0.31975049  0.32552996  0.32552996
  0.32765209  0.6422361   0.6422361   0.64390423  0.72717347  0.72717347
  0.7379172   0.7379172   0.74483101  0.74483101  0.74720474  0.84571539
  0.96907464  0.96907464  0.98030691  0.98030691  0.98438056  1.66524816
  1.66524816  1.6833976   1.77993182  1.77993182  1.79398605  1.79398605
  1.80412144  1.80412144  1.81024201  1.81024201  1.81228882  2.00164935
  2.00164935  2.01919739  2.01919739  2.03007564  2.03007564  2.03375668
  2.40624175  2.40624175  2.42619108  2.42619108  2.43292039  2.61541061
  3.42636246  3.42636246  3.44138804  3.44138804  3.45315999  3.45315999
  3.46161556  3.46161556  3.4667081   3.4667081   3.46840884  3.9216305
  3.9216305   3.95121712  4.56629716  4.56629716  4.58845027  4.58845027
  4.60205123  4.60205123  4.60664812  4.67688111  4.67688111  4.69633169
  4.69633169  4.71021181  4.71021181  4.71853774  4.71853774  4.72131302
  5.40562788  5.40562788  5.43051024  5.43051024  5.43897168  6.74468977
  6.9665128   6.9665128   6.98213965  6.98213965  6.99497784  6.99497784
  7.0049963   7.0049963   7.01217034  7.01217034  7.01648202  7.01648202
  7.01792046  8.90952413  8.90952413  8.92777151  8.92777151  8.94200398
  8.94200398  8.95219177  8.95219177  8.95831322  8.95831322  8.96035517
  9.01624413  9.01624413  9.04258968  9.4648848   9.4648848   9.48686328
  9.48686328  9.50035311  9.50035311  9.50492069 10.2178372  10.2178372
 10.23793047 10.23793047 10.25229961 10.25229961 10.26092813 10.26092813
 10.26380551 12.38237536 12.38237536 12.4044965  12.4044965  12.41193721
 16.98340502]
E1 = -3.778246200439389  Ecoul = 1.2393262377575367
cycle= 3 E= -2.53891996268185  delta_E= -0.00188  |g|= 0.0183  |ddm|= 0.131
    CPU time for cycle= 3     82.95 sec, wall time      0.67 sec
  HOMO = -0.0856593963811913  LUMO = 0.0413728937043328
                  Roothaan           | alpha              | beta
  Highest 2-occ =  -0.49289953567993 | -0.543002729683741 |    -0.449350106164
  Lowest 0-occ =  0.0413728937043328 | 0.0333855264166985 | 0.0473630714830714
  1-occ =         -0.0856593963811913 | -0.307298016742323 |  0.135976332088175
  Roothaan mo_energy =
[-0.49289954 -0.0856594   0.04137289  0.04137289  0.16770837  0.17404704
  0.19787511  0.19787511  0.32318695  0.32318695  0.32958303  0.32958303
  0.33197565  0.6458314   0.65015321  0.65015321  0.73152158  0.73152158
  0.74222309  0.74222309  0.74911601  0.74911601  0.75150337  0.85507555
  0.9767506   0.9767506   0.98777004  0.98777004  0.99172837  1.67573228
  1.67573228  1.6933713   1.78660708  1.78660708  1.80099565  1.80099565
  1.81138509  1.81138509  1.81766398  1.81766398  1.81976451  2.00993018
  2.00993018  2.02828463  2.02828463  2.03965755  2.03965755  2.04347243
  2.41724305  2.41724305  2.4382474   2.4382474   2.44531292  2.6288995
  3.43454604  3.43454604  3.45032923  3.45032923  3.46270993  3.46270993
  3.47161108  3.47161108  3.47697538  3.47697538  3.47876745  3.93490304
  3.93490304  3.96686479  4.57739477  4.57739477  4.60158059  4.60158059
  4.61646008  4.61646008  4.62148965  4.68699913  4.68699913  4.70810534
  4.70810534  4.72318436  4.72318436  4.73223652  4.73223652  4.73525506
  5.41903235  5.41903235  5.44649109  5.44649109  5.45585479  6.76148907
  6.97639106  6.97639106  6.993366    6.993366    7.00733048  7.00733048
  7.01823969  7.01823969  7.026058    7.026058    7.03075948  7.03075948
  7.03232841  8.92086374  8.92086374  8.94114339  8.94114339  8.95698082
  8.95698082  8.96832822  8.96832822  8.97515078  8.97515078  8.97742734
  9.0326431   9.0326431   9.06206967  9.47859751  9.47859751  9.50330342
  9.50330342  9.51851371  9.51851371  9.52367618 10.23053604 10.23053604
 10.25310699 10.25310699 10.26926856 10.26926856 10.27898165 10.27898165
 10.28222208 12.39873704 12.39873704 12.42386205 12.42386205 12.43233811
 17.00291269]
E1 = -3.7792161845048167  Ecoul = 1.2399124279463287
cycle= 4 E= -2.53930375655849  delta_E= -0.000384  |g|= 0.00127  |ddm|= 0.0968
    CPU time for cycle= 4    104.50 sec, wall time      0.82 sec
  HOMO = -0.087111765053675  LUMO = 0.0405938991007861
                  Roothaan           | alpha              | beta
  Highest 2-occ = -0.493779684488251 | -0.541500717146454 | -0.446234789848189
  Lowest 0-occ =  0.0405938991007861 | 0.0335740298830179 | 0.0475644707682507
  1-occ =         -0.087111765053675 | -0.311656302333567 |  0.137682878910977
  Roothaan mo_energy =
[-0.49377968 -0.08711177  0.0405939   0.0405939   0.1685466   0.17363178
  0.19734642  0.19734642  0.32274413  0.32274413  0.32903446  0.32903446
  0.33138902  0.64463667  0.64937933  0.64937933  0.73101279  0.73101279
  0.74164713  0.74164713  0.74849417  0.74849417  0.75086492  0.85418751
  0.97581964  0.97581964  0.98683752  0.98683752  0.99080924  1.6746422
  1.6746422   1.69193842  1.78579086  1.78579086  1.80007745  1.80007745
  1.81039028  1.81039028  1.81662183  1.81662183  1.81870633  2.00888102
  2.00888102  2.0271196   2.0271196   2.03841768  2.03841768  2.04221195
  2.41596831  2.41596831  2.43680789  2.43680789  2.44381438  2.62753837
  3.43349247  3.43349247  3.44915556  3.44915556  3.46143799  3.46143799
  3.47026631  3.47026631  3.47558582  3.47558582  3.47736279  3.93353505
  3.93353505  3.96525938  4.57599011  4.57599011  4.60003198  4.60003198
  4.61481646  4.61481646  4.61981223  4.68564359  4.68564359  4.70661302
  4.70661302  4.72159085  4.72159085  4.73058088  4.73058088  4.73357848
  5.41755356  5.41755356  5.44485955  5.44485955  5.454166    6.76001793
  6.97502625  6.97502625  6.99188431  6.99188431  7.00574909  7.00574909
  7.01657824  7.01657824  7.024338    7.024338    7.02900383  7.02900383
  7.03056077  8.91932724  8.91932724  8.93950211  8.93950211  8.95525432
  8.95525432  8.96653887  8.96653887  8.97332293  8.97332293  8.97558653
  9.03120419  9.03120419  9.06051286  9.47705472  9.47705472  9.50166949
  9.50166949  9.51681818  9.51681818  9.52195849 10.22896648 10.22896648
 10.25144835 10.25144835 10.26754316 10.26754316 10.277215   10.277215
 10.28044148 12.39721609 12.39721609 12.42227601 12.42227601 12.430727
 17.00153191]
E1 = -3.7794710792289052  Ecoul = 1.2401660965574197
cycle= 5 E= -2.53930498267149  delta_E= -1.23e-06  |g|= 0.000244  |ddm|= 0.0139
    CPU time for cycle= 5     90.20 sec, wall time      0.71 sec
  HOMO = -0.0870154093913731  LUMO = 0.0405749150191693
                  Roothaan           | alpha              | beta
  Highest 2-occ = -0.493784470810686 | -0.541363936458844 | -0.446042695828158
  Lowest 0-occ =  0.0405749150191693 | 0.0336360534296375 | 0.0476275199046907
  1-occ =         -0.0870154093913731 | -0.311732255963734 |  0.137758631042652
  Roothaan mo_energy =
[-0.49378447 -0.08701541  0.04057492  0.04057492  0.16835057  0.17365096
  0.19734473  0.19734473  0.32274813  0.32274813  0.32903736  0.32903736
  0.3313919   0.64467425  0.64937258  0.64937258  0.73102258  0.73102258
  0.74164905  0.74164905  0.74849027  0.74849027  0.75085822  0.85417741
  0.97581404  0.97581404  0.98681319  0.98681319  0.99077991  1.67462522
  1.67462522  1.69189368  1.7857967   1.7857967   1.80007414  1.80007414
  1.81037984  1.81037984  1.81660689  1.81660689  1.81868987  2.00887409
  2.00887409  2.02710126  2.02710126  2.03839204  2.03839204  2.04218506
  2.41594535  2.41594535  2.43677258  2.43677258  2.44377442  2.62750914
  3.43349008  3.43349008  3.44914437  3.44914437  3.46141918  3.46141918
  3.47024163  3.47024163  3.47555746  3.47555746  3.47733316  3.93350143
  3.93350143  3.96520791  4.57596183  4.57596183  4.59999294  4.59999294
  4.61476973  4.61476973  4.6197626   4.68562193  4.68562193  4.70658146
  4.70658146  4.72155148  4.72155148  4.73053656  4.73053656  4.73353245
  5.41751473  5.41751473  5.44480954  5.44480954  5.45411104  6.75997182
  6.97500665  6.97500665  6.99185675  6.99185675  7.0057143   7.0057143
  7.01653736  7.01653736  7.02429253  7.02429253  7.02895548  7.02895548
  7.03051145  8.91929188  8.91929188  8.93945957  8.93945957  8.95520551
  8.95520551  8.96648522  8.96648522  8.97326621  8.97326621  8.97552876
  9.03115951  9.03115951  9.0604585   9.47701     9.47701     9.50161826
  9.50161826  9.51676208  9.51676208  9.52190048 10.22892332 10.22892332
 10.25139897 10.25139897 10.26748871 10.26748871 10.27715724 10.27715724
 10.28038258 12.39716593 12.39716593 12.42222097 12.42222097 12.43066973
 17.00148386]
E1 = -3.7792636613036743  Ecoul = 1.2399585840051024
cycle= 6 E= -2.53930507729857  delta_E= -9.46e-08  |g|= 6.44e-05  |ddm|= 0.0034
    CPU time for cycle= 6     72.95 sec, wall time      0.58 sec
  HOMO = -0.0870269640339171  LUMO = 0.0405867530252547
                  Roothaan           | alpha              | beta
  Highest 2-occ = -0.493765274098672 | -0.541440241777608 | -0.446148956062667
  Lowest 0-occ =  0.0405867530252547 | 0.0335748401645349 | 0.0475651034653356
  1-occ =         -0.0870269640339171 | -0.311757296799424 |  0.137681727994509
  Roothaan mo_energy =
[-0.49376527 -0.08702696  0.04058675  0.04058675  0.16837459  0.17365819
  0.19735604  0.19735604  0.32275432  0.32275432  0.32904273  0.32904273
  0.33139682  0.64468192  0.64938818  0.64938818  0.7310305   0.7310305
  0.74165618  0.74165618  0.74849693  0.74849693  0.75086497  0.8541956
  0.97583096  0.97583096  0.98682977  0.98682977  0.99079593  1.67464737
  1.67464737  1.6919203   1.7858106   1.7858106   1.80008793  1.80008793
  1.81039364  1.81039364  1.81662072  1.81662072  1.81870372  2.00889312
  2.00889312  2.02712074  2.02712074  2.03841178  2.03841178  2.04220464
  2.41597054  2.41597054  2.4367988   2.4367988   2.443801    2.62753639
  3.4335089   3.4335089   3.44916383  3.44916383  3.46143928  3.46143928
  3.47026224  3.47026224  3.47557841  3.47557841  3.47735422  3.93353038
  3.93353038  3.96524036  4.57598945  4.57598945  4.6000227   4.6000227
  4.61480096  4.61480096  4.61979436  4.68564763  4.68564763  4.70660892
  4.70660892  4.72158034  4.72158034  4.7305663   4.7305663   4.7335625
  5.41754607  5.41754607  5.44484371  5.44484371  5.45414631  6.76000585
  6.97503232  6.97503232  6.99188393  6.99188393  7.00574285  7.00574285
  7.01656706  7.01656706  7.02432309  7.02432309  7.02898658  7.02898658
  7.03054273  8.91932232  8.91932232  8.93949209  8.93949209  8.95523979
  8.95523979  8.96652082  8.96652082  8.97330264  8.97330264  8.97556546
  9.03119324  9.03119324  9.06049551  9.47704325  9.47704325  9.50165404
  9.50165404  9.51679958  9.51679958  9.5219386  10.22895601 10.22895601
 10.251434   10.251434   10.26752555 10.26752555 10.27719522 10.27719522
 10.28042095 12.39720147 12.39720147 12.42225919 12.42225919 12.43070898
 17.0015196 ]
E1 = -3.7793216491561443  Ecoul = 1.240016558424101
cycle= 7 E= -2.53930509073204  delta_E= -1.34e-08  |g|= 7.61e-06  |ddm|= 0.000863
    CPU time for cycle= 7    134.37 sec, wall time      1.09 sec
  HOMO = -0.0870256287387072  LUMO = 0.0405844238199947
                  Roothaan           | alpha              | beta
  Highest 2-occ = -0.493767616380896 | -0.541415606130895 | -0.446111906112765
  Lowest 0-occ =  0.0405844238199947 | 0.0335915387114665 | 0.0475818275757816
  1-occ =         -0.0870256287387072 |  -0.31176102008706 |  0.137713186121366
  Roothaan mo_energy =
[-0.49376762 -0.08702563  0.04058442  0.04058442  0.16837448  0.17365624
  0.19735407  0.19735407  0.32275287  0.32275287  0.32904131  0.32904131
  0.33139535  0.64467554  0.64938537  0.64938537  0.73102878  0.73102878
  0.74165439  0.74165439  0.74849511  0.74849511  0.75086311  0.85419227
  0.97582793  0.97582793  0.9868267   0.9868267   0.99079272  1.67464347
  1.67464347  1.691916    1.78580796  1.78580796  1.80008509  1.80008509
  1.81039067  1.81039067  1.81661769  1.81661769  1.81870067  2.00888979
  2.00888979  2.02711714  2.02711714  2.03840801  2.03840801  2.04220076
  2.41596632  2.41596632  2.43679416  2.43679416  2.44379625  2.62753163
  3.43350559  3.43350559  3.44916025  3.44916025  3.46143551  3.46143551
  3.47025837  3.47025837  3.47557447  3.47557447  3.47735027  3.9335255
  3.9335255   3.96523496  4.5759849   4.5759849   4.60001774  4.60001774
  4.6147958   4.6147958   4.61978913  4.68564337  4.68564337  4.70660431
  4.70660431  4.72157551  4.72157551  4.73056137  4.73056137  4.73355753
  5.4175409   5.4175409   5.44483807  5.44483807  5.45414057  6.76000017
  6.97502807  6.97502807  6.99187938  6.99187938  7.00573809  7.00573809
  7.01656216  7.01656216  7.02431809  7.02431809  7.02898153  7.02898153
  7.03053767  8.91931738  8.91931738  8.93948681  8.93948681  8.95523427
  8.95523427  8.96651515  8.96651515  8.97329689  8.97329689  8.97555968
  9.03118753  9.03118753  9.06048933  9.4770378   9.4770378   9.50164818
  9.50164818  9.51679349  9.51679349  9.52193244 10.22895069 10.22895069
 10.25142831 10.25142831 10.26751962 10.26751962 10.27718915 10.27718915
 10.28041483 12.39719554 12.39719554 12.42225283 12.42225283 12.4307025
 17.0015134 ]
E1 = -3.7793147494318786  Ecoul = 1.24000965852233
cycle= 8 E= -2.53930509090955  delta_E= -1.78e-10  |g|= 7.68e-07  |ddm|= 7.84e-05
    CPU time for cycle= 8     89.54 sec, wall time      0.75 sec
  HOMO = -0.0870258231299422  LUMO = 0.040584698519769
                  Roothaan           | alpha              | beta
  Highest 2-occ = -0.493767424713493 | -0.541418547798645 | -0.446116301628341
  Lowest 0-occ =   0.040584698519769 | 0.0335895523848738 | 0.0475798446546651
  1-occ =         -0.0870258231299422 | -0.311760582960605 |  0.137709295300139
  Roothaan mo_energy =
[-0.49376742 -0.08702582  0.0405847   0.0405847   0.16837459  0.17365643
  0.19735425  0.19735425  0.32275307  0.32275307  0.32904149  0.32904149
  0.33139553  0.64467636  0.64938567  0.64938567  0.73102901  0.73102901
  0.74165462  0.74165462  0.74849535  0.74849535  0.75086334  0.85419261
  0.97582827  0.97582827  0.98682705  0.98682705  0.99079308  1.67464387
  1.67464387  1.69191639  1.7858083   1.7858083   1.80008544  1.80008544
  1.81039103  1.81039103  1.81661806  1.81661806  1.81870104  2.00889018
  2.00889018  2.02711754  2.02711754  2.03840843  2.03840843  2.04220118
  2.41596676  2.41596676  2.43679463  2.43679463  2.44379672  2.6275321
  3.433506    3.433506    3.44916067  3.44916067  3.46143595  3.46143595
  3.47025881  3.47025881  3.47557491  3.47557491  3.47735071  3.93352597
  3.93352597  3.96523546  4.57598538  4.57598538  4.60001824  4.60001824
  4.6147963   4.6147963   4.61978964  4.68564386  4.68564386  4.7066048
  4.7066048   4.72157601  4.72157601  4.73056187  4.73056187  4.73355804
  5.4175414   5.4175414   5.44483859  5.44483859  5.45414109  6.76000067
  6.97502856  6.97502856  6.99187988  6.99187988  7.0057386   7.0057386
  7.01656267  7.01656267  7.02431861  7.02431861  7.02898205  7.02898205
  7.03053819  8.91931791  8.91931791  8.93948734  8.93948734  8.95523481
  8.95523481  8.96651569  8.96651569  8.97329743  8.97329743  8.97556023
  9.03118804  9.03118804  9.06048983  9.47703833  9.47703833  9.50164871
  9.50164871  9.51679402  9.51679402  9.52193297 10.22895123 10.22895123
 10.25142884 10.25142884 10.26752015 10.26752015 10.27718969 10.27718969
 10.28041537 12.39719607 12.39719607 12.42225336 12.42225336 12.43070303
 17.0015139 ]
E1 = -3.7793154507659086  Ecoul = 1.2400103598550072
Extra cycle  E= -2.5393050909109  delta_E= -1.35e-12  |g|= 2.95e-07  |ddm|= 8.09e-06
    CPU time for scf_cycle   1071.08 sec, wall time      9.53 sec
    CPU time for SCF   1071.09 sec, wall time      9.53 sec
converged SCF energy = -2.5393050909109
