#INFO: **** input file is /home/nkousuke/lustre/toBeSync/turboRVB/05turbo-genius-development/turbogenius_paper/04data/sanity_checks/03pyscf_HF_turbo_VMC_via_trexio/00open_boundary/results/Li-/pyscf-HF-workflow/run.py ****

from pyscf_wrapper import Pyscf_wrapper

# input variables
pyscf_chkfile="pyscf.chk"
structure_file="Li.xyz"

# input variables
omp_num_threads=128
charge=-1
spin=0
basis="ccecp-ccpvqz"
ecp="ccecp"
scf_method="HF"
dft_xc="NA"
solver_newton=False
MP2_flag=False
CCSD_flag=False
pyscf_output="out.pyscf"
twist_average=False
exp_to_discard=0.0
kpt=[0.0, 0.0, 0.0]
kpt_grid=[1, 1, 1]
smearing_method="fermi"
smearing_sigma=0.0

pyscf_calc=Pyscf_wrapper(
                        structure_file=structure_file,
                        chkfile=pyscf_chkfile,
                        )

pyscf_calc.run_pyscf(
                  omp_num_threads=omp_num_threads,
                  charge=charge,
                  spin=spin,
                  basis=basis,
                  ecp=ecp,
                  scf_method=scf_method,
                  dft_xc=dft_xc,
                  solver_newton=solver_newton,
                  MP2_flag=MP2_flag,
                  CCSD_flag=CCSD_flag,
                  pyscf_output=pyscf_output,
                  twist_average=twist_average,
                  exp_to_discard=exp_to_discard,
                  kpt=kpt,
                  kpt_grid=kpt_grid,
                  smearing_method=smearing_method,
                  smearing_sigma=smearing_sigma
                  )
                #INFO: ******************** input file end ********************


System: uname_result(system='Linux', node='spcc-200', release='5.4.0-66-generic', version='#74-Ubuntu SMP Wed Jan 27 22:54:38 UTC 2021', machine='x86_64', processor='x86_64')  Threads 128
Python 3.7.3 (default, Mar 27 2019, 22:11:17) 
[GCC 7.3.0]
numpy 1.20.1  scipy 1.7.3
Date: Mon Dec 19 18:09:56 2022
PySCF version 2.0.1
PySCF path  /home/nkousuke/application/anaconda3/lib/python3.7/site-packages/pyscf

[CONFIG] conf_file /home/nkousuke/.pyscf_conf.py
[INPUT] verbose = 5
[INPUT] max_memory = 507495.60546875 
[INPUT] num. atoms = 1
[INPUT] num. electrons = 2
[INPUT] charge = -1
[INPUT] spin (= nelec alpha-beta = 2S) = 0
[INPUT] symmetry False subgroup None
[INPUT] Mole.unit = A
[INPUT]  1 Li     0.000000000000   0.000000000000   0.000000000000 AA    0.000000000000   0.000000000000   0.000000000000 Bohr
[INPUT] ---------------- BASIS SET ---------------- 
[INPUT] l, kappa, [nprim/nctr], expnt,             c_1 c_2 ...
[INPUT] Li
[INPUT] 0    0    [10   /1   ]  16.001258         4.34e-05
                                7.583113          -0.0007531
                                3.593693          -0.0002519
                                1.703077          0.0169674
                                0.807101          -0.0909921
                                0.382491          -0.0893155
                                0.181265          0.0294155
                                0.085903          0.364402
                                0.04071           0.5504973
                                0.019293          0.1744412
[INPUT] 0    0    [1    /1   ]  0.519693             1
[INPUT] 0    0    [1    /1   ]  0.10977              1
[INPUT] 0    0    [1    /1   ]  0.024834             1
[INPUT] 1    0    [10   /1   ]  7.004881          -0.0005306
                                3.451199          0.0012949
                                1.700353          0.0070115
                                0.837738          0.0171604
                                0.412741          0.036724
                                0.203351          0.0965042
                                0.100188          0.2211013
                                0.049361          0.3835358
                                0.02432           0.3350564
                                0.011982          0.0781453
[INPUT] 1    0    [1    /1   ]  0.207505             1
[INPUT] 1    0    [1    /1   ]  0.115823             1
[INPUT] 1    0    [1    /1   ]  0.070662             1
[INPUT] 2    0    [1    /1   ]  0.21499              1
[INPUT] 2    0    [1    /1   ]  0.089353             1
[INPUT] 2    0    [1    /1   ]  0.029817             1
[INPUT] 3    0    [1    /1   ]  0.240323             1
[INPUT] 3    0    [1    /1   ]  0.09993              1
[INPUT] 4    0    [1    /1   ]  0.19957              1

nuclear repulsion = 0
number of shells = 14
number of NR pGTOs = 90
number of NR cGTOs = 54
basis = ccecp-ccpvqz
ecp = ccecp
CPU time:         5.64


******** <class 'pyscf.scf.hf.RHF'> ********
method = RHF
initial guess = minao
damping factor = 0
level_shift factor = 0
DIIS = <class 'pyscf.scf.diis.CDIIS'>
diis_start_cycle = 1
diis_space = 8
SCF conv_tol = 1e-09
SCF conv_tol_grad = None
SCF max_cycles = 200
direct_scf = True
direct_scf_tol = 1e-13
chkfile to save SCF result = pyscf.chk
max_memory 507495 MB (current use 106 MB)
Set gradient conv threshold to 3.16228e-05
E1 = -0.1968527903495578  E_coul = 0.05857972869636553
init E= -0.138273061653192
cond(S) = 994.700785269894
    CPU time for initialize scf     84.00 sec, wall time      0.89 sec
  HOMO = -0.0824961911512879  LUMO = 0.0382059213220351
  mo_energy =
[-0.08249619  0.03820592  0.03820592  0.03820592  0.09008668  0.09267219
  0.09267219  0.09267219  0.09267219  0.09267219  0.14303661  0.14303661
  0.14303661  0.31760678  0.31760678  0.31760678  0.31760678  0.31760678
  0.38077727  0.38077727  0.38077727  0.3949836   0.39959383  0.39959383
  0.39959383  0.39959383  0.39959383  0.39959383  0.39959383  0.8593278
  0.8593278   0.8593278   0.87868391  0.87868391  0.87868391  0.87868391
  0.87868391  1.04395121  1.04395121  1.04395121  1.04395121  1.04395121
  1.04395121  1.04395121  1.04395121  1.04395121  1.19862183  1.19862183
  1.19862183  1.19862183  1.19862183  1.19862183  1.19862183  2.4634293 ]
E1 = -0.3894085846611549  E_coul = 0.2118477673762475
cycle= 1 E= -0.177560817284907  delta_E= -0.0393  |g|= 0.0575  |ddm|= 0.84
    CPU time for cycle= 1     20.44 sec, wall time      0.16 sec
  HOMO = 0.0138417896582583  LUMO = 0.16676966650179
  mo_energy =
[0.01384179 0.16676967 0.16676967 0.16676967 0.21863433 0.21863433
 0.21863433 0.21863433 0.21863433 0.23064162 0.30475481 0.30475481
 0.30475481 0.50041657 0.50041657 0.50041657 0.50041657 0.50041657
 0.57622218 0.57622218 0.57622218 0.58027262 0.58027262 0.58027262
 0.58027262 0.58027262 0.58027262 0.58027262 0.59015496 1.07581808
 1.07581808 1.07581808 1.10144199 1.10144199 1.10144199 1.10144199
 1.10144199 1.25661598 1.25661598 1.25661598 1.25661598 1.25661598
 1.25661598 1.25661598 1.25661598 1.25661598 1.42333425 1.42333425
 1.42333425 1.42333425 1.42333425 1.42333425 1.42333425 2.71217111]
E1 = -0.3773728038740282  E_coul = 0.19087172359280652
cycle= 2 E= -0.186501080281222  delta_E= -0.00894  |g|= 0.019  |ddm|=  1.8
    CPU time for cycle= 2     39.21 sec, wall time      0.31 sec
  HOMO = -0.00302338350165062  LUMO = 0.156340221782052
  mo_energy =
[-0.00302338  0.15634022  0.15634022  0.15634022  0.2125702   0.2125702
  0.2125702   0.2125702   0.2125702   0.22697387  0.28667604  0.28667604
  0.28667604  0.47716546  0.47716546  0.47716546  0.47716546  0.47716546
  0.54552611  0.54552611  0.54552611  0.56012882  0.56012882  0.56012882
  0.56012882  0.56012882  0.56012882  0.56012882  0.5612123   1.03405371
  1.03405371  1.03405371  1.05753271  1.05753271  1.05753271  1.05753271
  1.05753271  1.2214596   1.2214596   1.2214596   1.2214596   1.2214596
  1.2214596   1.2214596   1.2214596   1.2214596   1.37959357  1.37959357
  1.37959357  1.37959357  1.37959357  1.37959357  1.37959357  2.6511242 ]
E1 = -0.36934077860645564  E_coul = 0.18168684900395993
cycle= 3 E= -0.187653929602496  delta_E= -0.00115  |g|= 0.00221  |ddm|=  1.8
    CPU time for cycle= 3     15.75 sec, wall time      0.12 sec
  HOMO = -0.00301703389778215  LUMO = 0.155141651916101
  mo_energy =
[-0.00301703  0.15514165  0.15514165  0.15514165  0.21169061  0.21169061
  0.21169061  0.21169061  0.21169061  0.22480556  0.284824    0.284824
  0.284824    0.47458662  0.47458662  0.47458662  0.47458662  0.47458662
  0.54236603  0.54236603  0.54236603  0.55765928  0.55765928  0.55765928
  0.55765928  0.55765928  0.55765928  0.55765928  0.55787445  1.03031261
  1.03031261  1.03031261  1.05351094  1.05351094  1.05351094  1.05351094
  1.05351094  1.21772938  1.21772938  1.21772938  1.21772938  1.21772938
  1.21772938  1.21772938  1.21772938  1.21772938  1.37548028  1.37548028
  1.37548028  1.37548028  1.37548028  1.37548028  1.37548028  2.64640796]
E1 = -0.3685316802589674  E_coul = 0.1808646739659749
cycle= 4 E= -0.187667006292992  delta_E= -1.31e-05  |g|= 0.000167  |ddm|= 0.347
    CPU time for cycle= 4     17.41 sec, wall time      0.14 sec
  HOMO = -0.00343797835929548  LUMO = 0.155060273665343
  mo_energy =
[-0.00343798  0.15506027  0.15506027  0.15506027  0.21166063  0.21166063
  0.21166063  0.21166063  0.21166063  0.2250829   0.28474783  0.28474783
  0.28474783  0.47447867  0.47447867  0.47447867  0.47447867  0.47447867
  0.54223725  0.54223725  0.54223725  0.55756491  0.55756491  0.55756491
  0.55756491  0.55756491  0.55756491  0.55756491  0.5577833   1.03011653
  1.03011653  1.03011653  1.05329952  1.05329952  1.05329952  1.05329952
  1.05329952  1.21756117  1.21756117  1.21756117  1.21756117  1.21756117
  1.21756117  1.21756117  1.21756117  1.21756117  1.37526849  1.37526849
  1.37526849  1.37526849  1.37526849  1.37526849  1.37526849  2.64610271]
E1 = -0.36845965921690366  E_coul = 0.1807925741204667
cycle= 5 E= -0.187667085096437  delta_E= -7.88e-08  |g|= 2.08e-06  |ddm|= 0.0296
    CPU time for cycle= 5     17.91 sec, wall time      0.14 sec
  HOMO = -0.00343682108631995  LUMO = 0.155061072073925
  mo_energy =
[-0.00343682  0.15506107  0.15506107  0.15506107  0.21166115  0.21166115
  0.21166115  0.21166115  0.21166115  0.22508303  0.28474871  0.28474871
  0.28474871  0.47448003  0.47448003  0.47448003  0.47448003  0.47448003
  0.54223886  0.54223886  0.54223886  0.55756629  0.55756629  0.55756629
  0.55756629  0.55756629  0.55756629  0.55756629  0.55778499  1.03011834
  1.03011834  1.03011834  1.05330152  1.05330152  1.05330152  1.05330152
  1.05330152  1.21756316  1.21756316  1.21756316  1.21756316  1.21756316
  1.21756316  1.21756316  1.21756316  1.21756316  1.37527056  1.37527056
  1.37527056  1.37527056  1.37527056  1.37527056  1.37527056  2.64610484]
E1 = -0.3684603665922562  E_coul = 0.18079328148592194
cycle= 6 E= -0.187667085106334  delta_E= -9.9e-12  |g|= 3.44e-08  |ddm|= 0.000354
    CPU time for cycle= 6     17.40 sec, wall time      0.13 sec
  HOMO = -0.00343690181020743  LUMO = 0.155061073500131
  mo_energy =
[-0.0034369   0.15506107  0.15506107  0.15506107  0.21166116  0.21166116
  0.21166116  0.21166116  0.21166116  0.22508312  0.28474873  0.28474873
  0.28474873  0.47448005  0.47448005  0.47448005  0.47448005  0.47448005
  0.54223888  0.54223888  0.54223888  0.55756631  0.55756631  0.55756631
  0.55756631  0.55756631  0.55756631  0.55756631  0.55778502  1.03011837
  1.03011837  1.03011837  1.05330155  1.05330155  1.05330155  1.05330155
  1.05330155  1.21756318  1.21756318  1.21756318  1.21756318  1.21756318
  1.21756318  1.21756318  1.21756318  1.21756318  1.37527059  1.37527059
  1.37527059  1.37527059  1.37527059  1.37527059  1.37527059  2.64610487]
E1 = -0.368460355072493  E_coul = 0.18079326996615522
Extra cycle  E= -0.187667085106338  delta_E= -3.47e-15  |g|= 1.17e-08  |ddm|= 3.69e-06
    CPU time for scf_cycle    226.95 sec, wall time      2.00 sec
    CPU time for SCF    226.95 sec, wall time      2.01 sec
converged SCF energy = -0.187667085106338
