#INFO: **** input file is /home/nkousuke/lustre/toBeSync/turboRVB/05turbo-genius-development/turbogenius_paper/04data/sanity_checks/03pyscf_HF_turbo_VMC_via_trexio/00open_boundary/results/F2/pyscf-HF-workflow/run.py ****

from pyscf_wrapper import Pyscf_wrapper

# input variables
pyscf_chkfile="pyscf.chk"
structure_file="F2.xyz"

# input variables
omp_num_threads=128
charge=0
spin=0
basis="ccecp-ccpvqz"
ecp="ccecp"
scf_method="HF"
dft_xc="NA"
solver_newton=False
MP2_flag=False
CCSD_flag=False
pyscf_output="out.pyscf"
twist_average=False
exp_to_discard=0.0
kpt=[0.0, 0.0, 0.0]
kpt_grid=[1, 1, 1]
smearing_method="fermi"
smearing_sigma=0.0

pyscf_calc=Pyscf_wrapper(
                        structure_file=structure_file,
                        chkfile=pyscf_chkfile,
                        )

pyscf_calc.run_pyscf(
                  omp_num_threads=omp_num_threads,
                  charge=charge,
                  spin=spin,
                  basis=basis,
                  ecp=ecp,
                  scf_method=scf_method,
                  dft_xc=dft_xc,
                  solver_newton=solver_newton,
                  MP2_flag=MP2_flag,
                  CCSD_flag=CCSD_flag,
                  pyscf_output=pyscf_output,
                  twist_average=twist_average,
                  exp_to_discard=exp_to_discard,
                  kpt=kpt,
                  kpt_grid=kpt_grid,
                  smearing_method=smearing_method,
                  smearing_sigma=smearing_sigma
                  )
                #INFO: ******************** input file end ********************


System: uname_result(system='Linux', node='spcc-238', release='5.4.0-66-generic', version='#74-Ubuntu SMP Wed Jan 27 22:54:38 UTC 2021', machine='x86_64', processor='x86_64')  Threads 128
Python 3.7.3 (default, Mar 27 2019, 22:11:17) 
[GCC 7.3.0]
numpy 1.20.1  scipy 1.7.3
Date: Mon Dec 19 18:07:25 2022
PySCF version 2.0.1
PySCF path  /home/nkousuke/application/anaconda3/lib/python3.7/site-packages/pyscf

[CONFIG] conf_file /home/nkousuke/.pyscf_conf.py
[INPUT] verbose = 5
[INPUT] max_memory = 506309.2421875 
[INPUT] num. atoms = 2
[INPUT] num. electrons = 14
[INPUT] charge = 0
[INPUT] spin (= nelec alpha-beta = 2S) = 0
[INPUT] symmetry False subgroup None
[INPUT] Mole.unit = A
[INPUT]  1 F      0.000000000000   0.000000000000   0.706100000000 AA    0.000000000000   0.000000000000   1.334335616555 Bohr
[INPUT]  2 F      0.000000000000   0.000000000000  -0.706100000000 AA    0.000000000000   0.000000000000  -1.334335616555 Bohr
[INPUT] ---------------- BASIS SET ---------------- 
[INPUT] l, kappa, [nprim/nctr], expnt,             c_1 c_2 ...
[INPUT] F
[INPUT] 0    0    [10   /1   ]  84.048652         -2.8e-06
                                41.094617         -0.0003543
                                20.092738         0.0184088
                                9.824112          -0.1277661
                                4.803386          -0.0702872
                                2.34856           0.1571604
                                1.148301          0.3769012
                                0.561449          0.4095165
                                0.274514          0.1970893
                                0.13422           0.0243482
[INPUT] 0    0    [1    /1   ]  1.705653             1
[INPUT] 0    0    [1    /1   ]  1.048013             1
[INPUT] 0    0    [1    /1   ]  0.294345             1
[INPUT] 1    0    [10   /1   ]  31.642619         0.0029673
                                16.243233         0.0298049
                                8.338204          0.0669489
                                4.280284          0.133779
                                2.197215          0.2148312
                                1.127906          0.2664862
                                0.578992          0.2618954
                                0.297216          0.1920217
                                0.152571          0.0828465
                                0.07832           0.0133046
[INPUT] 1    0    [1    /1   ]  1.650688             1
[INPUT] 1    0    [1    /1   ]  0.64724              1
[INPUT] 1    0    [1    /1   ]  0.205806             1
[INPUT] 2    0    [1    /1   ]  4.998085             1
[INPUT] 2    0    [1    /1   ]  1.724392             1
[INPUT] 2    0    [1    /1   ]  0.587354             1
[INPUT] 3    0    [1    /1   ]  3.694285             1
[INPUT] 3    0    [1    /1   ]  1.178147             1
[INPUT] 4    0    [1    /1   ]  2.406583             1

nuclear repulsion = 18.3611976597366
number of shells = 28
number of NR pGTOs = 180
number of NR cGTOs = 108
basis = ccecp-ccpvqz
ecp = ccecp
CPU time:         4.66


******** <class 'pyscf.scf.hf.RHF'> ********
method = RHF
initial guess = minao
damping factor = 0
level_shift factor = 0
DIIS = <class 'pyscf.scf.diis.CDIIS'>
diis_start_cycle = 1
diis_space = 8
SCF conv_tol = 1e-09
SCF conv_tol_grad = None
SCF max_cycles = 200
direct_scf = True
direct_scf_tol = 1e-13
chkfile to save SCF result = pyscf.chk
max_memory 506309 MB (current use 107 MB)
Set gradient conv threshold to 3.16228e-05
E1 = -118.46284692187409  E_coul = 52.512267969940595
init E= -47.5893812921969
cond(S) = 1944.9768348363773
    CPU time for initialize scf    113.49 sec, wall time      1.09 sec
  HOMO = -0.511804436410624  LUMO = -0.219857769382776
  mo_energy =
[-1.88725404 -1.48756864 -0.82348162 -0.72447421 -0.72447421 -0.51180444
 -0.51180444 -0.21985777  0.51090106  0.61171036  0.61171036  0.69267557
  0.71310273  0.71310273  0.92648828  1.43435889  1.43435889  1.4360681
  1.4360681   1.45499128  1.7287758   1.7287758   2.02612341  2.117088
  2.19017561  2.19017561  2.88295971  2.88295971  2.98276945  3.11330355
  3.11330355  4.08663783  4.24429324  4.24429324  4.27965501  4.27965501
  4.35680083  4.50844932  4.50844932  4.65732754  4.65732754  5.01035018
  5.01035018  5.26521234  5.26521234  5.41862425  5.41862425  5.42318627
  5.45222939  5.45222939  5.48414181  5.48414181  5.57948161  5.77697821
  6.24268603  6.24268603  6.55137145  7.4580698  10.53544135 10.53544135
 10.6464579  10.6464579  10.72307084 11.54031465 11.54031465 11.7700713
 11.77426373 11.77426373 11.93296528 11.96684482 11.96684482 12.02130894
 12.02130894 12.02895956 12.02895956 12.0738059  12.0738059  12.32675998
 12.32675998 12.95466601 12.95466601 13.25777056 15.47550257 15.47550257
 15.5709935  15.5709935  15.59705132 15.59705132 15.64596262 15.64596262
 15.77705114 15.87104297 15.87104297 16.11069522 16.11069522 16.2025244
 16.22485795 16.22485795 16.28062186 16.28062186 16.34547756 16.34547756
 16.7334475  16.7334475  17.2375774  17.78334922 33.70235166 33.83355574]
E1 = -117.69366778776103  E_coul = 51.530870188362904
cycle= 1 E= -47.8015999396615  delta_E= -0.212  |g|= 0.389  |ddm|= 1.87
    CPU time for cycle= 1     59.19 sec, wall time      0.47 sec
  HOMO = -0.706780477135047  LUMO = 0.0228603122245027
  mo_energy =
[-1.84103453e+00 -1.55991826e+00 -8.53592627e-01 -8.53592627e-01
 -8.07174441e-01 -7.06780477e-01 -7.06780477e-01  2.28603122e-02
  5.23487759e-01  5.91267636e-01  5.91267636e-01  6.84021036e-01
  7.02411494e-01  7.02411494e-01  9.01491518e-01  1.38754118e+00
  1.38754118e+00  1.41014909e+00  1.41014909e+00  1.44140411e+00
  1.71201168e+00  1.71201168e+00  1.98922193e+00  2.10711956e+00
  2.17733134e+00  2.17733134e+00  2.84238145e+00  2.84238145e+00
  2.93895110e+00  3.07755739e+00  3.07755739e+00  4.05510992e+00
  4.20114922e+00  4.20114922e+00  4.20187039e+00  4.20187039e+00
  4.24581524e+00  4.49624106e+00  4.49624106e+00  4.64789275e+00
  4.64789275e+00  4.96068116e+00  4.96068116e+00  5.22907134e+00
  5.22907134e+00  5.34268328e+00  5.34268328e+00  5.37070458e+00
  5.43621113e+00  5.43621113e+00  5.43718986e+00  5.43718986e+00
  5.53043666e+00  5.74235275e+00  6.21418317e+00  6.21418317e+00
  6.50881670e+00  7.35144364e+00  1.04776165e+01  1.04776165e+01
  1.05929001e+01  1.05929001e+01  1.06445028e+01  1.14644010e+01
  1.14644010e+01  1.17009564e+01  1.17134714e+01  1.17134714e+01
  1.18325958e+01  1.19276657e+01  1.19276657e+01  1.20171565e+01
  1.20171565e+01  1.20248226e+01  1.20248226e+01  1.20324016e+01
  1.20324016e+01  1.22511890e+01  1.22511890e+01  1.28410002e+01
  1.28410002e+01  1.31296259e+01  1.54070245e+01  1.54070245e+01
  1.54761000e+01  1.54761000e+01  1.55486340e+01  1.55486340e+01
  1.56256714e+01  1.56256714e+01  1.56315805e+01  1.57967474e+01
  1.57967474e+01  1.60658884e+01  1.60658884e+01  1.61436783e+01
  1.61980197e+01  1.61980197e+01  1.62188363e+01  1.62188363e+01
  1.62406940e+01  1.62406940e+01  1.66809944e+01  1.66809944e+01
  1.71706549e+01  1.76513885e+01  3.36124387e+01  3.37411865e+01]
E1 = -118.5565714921458  E_coul = 52.372759133038706
cycle= 2 E= -47.8226146993705  delta_E= -0.021  |g|= 0.127  |ddm|= 0.389
    CPU time for cycle= 2     51.34 sec, wall time      0.46 sec
  HOMO = -0.661419478924801  LUMO = 0.0828955892315075
  mo_energy =
[-1.78050367 -1.5157634  -0.80638851 -0.80638851 -0.75087228 -0.66141948
 -0.66141948  0.08289559  0.53517832  0.60671149  0.60671149  0.69237371
  0.71155175  0.71155175  0.93155129  1.42275368  1.42275368  1.43953532
  1.43953532  1.46526995  1.73553704  1.73553704  2.01876667  2.1212587
  2.19515566  2.19515566  2.88147539  2.88147539  2.99208465  3.11853257
  3.11853257  4.09427434  4.23925625  4.23925625  4.24911453  4.24911453
  4.30597427  4.53060211  4.53060211  4.68119971  4.68119971  5.00552744
  5.00552744  5.27985301  5.27985301  5.40245503  5.40245503  5.41829972
  5.47525004  5.47525004  5.48301404  5.48301404  5.58635491  5.77846245
  6.24102279  6.24102279  6.54322353  7.42131319 10.55088922 10.55088922
 10.66504637 10.66504637 10.71141968 11.51644208 11.51644208 11.76419621
 11.76419621 11.7668881  11.90155523 11.9790715  11.9790715  12.06739091
 12.06739091 12.07504547 12.07504547 12.08488079 12.08488079 12.30959643
 12.30959643 12.91228792 12.91228792 13.20697143 15.47842915 15.47842915
 15.55916673 15.55916673 15.61847976 15.61847976 15.69464165 15.69464165
 15.72324167 15.87086302 15.87086302 16.14459154 16.14459154 16.20016393
 16.26853301 16.26853301 16.28666159 16.28666159 16.32535035 16.32535035
 16.73375433 16.73375433 17.22919485 17.72957595 33.71238635 33.84182889]
E1 = -118.31646704520479  E_coul = 52.130782172982535
cycle= 3 E= -47.8244872124857  delta_E= -0.00187  |g|= 0.0208  |ddm|= 0.113
    CPU time for cycle= 3     57.23 sec, wall time      0.45 sec
  HOMO = -0.668884315479551  LUMO = 0.0785401386507304
  mo_energy =
[-1.78653115 -1.52175211 -0.81296972 -0.81296972 -0.75439648 -0.66888432
 -0.66888432  0.07854014  0.53471116  0.6048477   0.6048477   0.6921014
  0.71041871  0.71041871  0.92975179  1.42019146  1.42019146  1.43778471
  1.43778471  1.46353137  1.7336706   1.7336706   2.01561407  2.11941171
  2.1932796   2.1932796   2.87644231  2.87644231  2.98752165  3.11352027
  3.11352027  4.09072705  4.23670083  4.23670083  4.24628955  4.24628955
  4.30210793  4.52804262  4.52804262  4.6786059   4.6786059   5.00236878
  5.00236878  5.27418026  5.27418026  5.39728702  5.39728702  5.41295911
  5.47006645  5.47006645  5.47755303  5.47755303  5.57984907  5.77298529
  6.23751401  6.23751401  6.53779054  7.41541461 10.54002389 10.54002389
 10.6543341  10.6543341  10.70241273 11.51136152 11.51136152 11.7569852
 11.75919176 11.75919176 11.89474603 11.97417015 11.97417015 12.06264851
 12.06264851 12.07030153 12.07030153 12.0799437  12.0799437  12.30447029
 12.30447029 12.90674015 12.90674015 13.20074762 15.46946254 15.46946254
 15.54989042 15.54989042 15.60997463 15.60997463 15.68615231 15.68615231
 15.71307229 15.8618457  15.8618457  16.13351654 16.13351654 16.18919964
 16.25757875 16.25757875 16.27525434 16.27525434 16.31423623 16.31423623
 16.72437346 16.72437346 17.21853854 17.7198062  33.69546521 33.82501363]
E1 = -118.36312309244967  E_coul = 52.17734897164005
cycle= 4 E= -47.824576461073  delta_E= -8.92e-05  |g|= 0.00693  |ddm|= 0.0337
    CPU time for cycle= 4     34.22 sec, wall time      0.27 sec
  HOMO = -0.666556733708606  LUMO = 0.0811689302465564
  mo_energy =
[-1.78394702 -1.51906293 -0.81071479 -0.81071479 -0.75132597 -0.66655673
 -0.66655673  0.08116893  0.53580249  0.60533407  0.60533407  0.69276339
  0.71087337  0.71087337  0.93080589  1.42130682  1.42130682  1.43875933
  1.43875933  1.46453109  1.73467602  1.73467602  2.01692488  2.12079756
  2.19431827  2.19431827  2.8784272   2.8784272   2.99005836  3.11544871
  3.11544871  4.09249603  4.23806927  4.23806927  4.24775178  4.24775178
  4.30393289  4.5294198   4.5294198   4.68000205  4.68000205  5.00399537
  5.00399537  5.27668204  5.27668204  5.39970803  5.39970803  5.41549339
  5.47236003  5.47236003  5.47998153  5.47998153  5.58281984  5.77545577
  6.23915741  6.23915741  6.54013076  7.41807817 10.54441681 10.54441681
 10.65868586 10.65868586 10.70622829 11.51371441 11.51371441 11.76106243
 11.76156257 11.76156257 11.8976823  11.97659579 11.97659579 12.06515541
 12.06515541 12.07280878 12.07280878 12.08237191 12.08237191 12.30688128
 12.30688128 12.90929331 12.90929331 13.20355269 15.47329031 15.47329031
 15.55375792 15.55375792 15.61395731 15.61395731 15.69013014 15.69013014
 15.71726412 15.86573325 15.86573325 16.13825835 16.13825835 16.19329656
 16.26221409 16.26221409 16.27968779 16.27968779 16.31876212 16.31876212
 16.72798842 16.72798842 17.2225019  17.72368767 33.70206224 33.83158454]
E1 = -118.34986774119368  E_coul = 52.164087100717445
cycle= 5 E= -47.8245829807396  delta_E= -6.52e-06  |g|= 0.000857  |ddm|= 0.00801
    CPU time for cycle= 5     31.67 sec, wall time      0.25 sec
  HOMO = -0.666800512412361  LUMO = 0.0809109758598071
  mo_energy =
[-1.78413684 -1.51928764 -0.81092146 -0.81092146 -0.75141311 -0.66680051
 -0.66680051  0.08091098  0.53575811  0.60527043  0.60527043  0.69273203
  0.71082278  0.71082278  0.93073399  1.42119517  1.42119517  1.43868914
  1.43868914  1.4644538   1.73459253  1.73459253  2.01676641  2.12065937
  2.19419465  2.19419465  2.878249    2.878249    2.98985431  3.11528746
  3.11528746  4.09233426  4.23793889  4.23793889  4.24763828  4.24763828
  4.30381024  4.52931851  4.52931851  4.67989755  4.67989755  5.00387897
  5.00387897  5.27649154  5.27649154  5.39952803  5.39952803  5.41525578
  5.47214429  5.47214429  5.4797353   5.4797353   5.5825766   5.77520228
  6.23893469  6.23893469  6.53983814  7.41787135 10.54409093 10.54409093
 10.65836386 10.65836386 10.70589133 11.51346604 11.51346604 11.76070053
 11.76132722 11.76132722 11.89743209 11.97639458 11.97639458 12.06498898
 12.06498898 12.0726423  12.0726423  12.08217518 12.08217518 12.3066744
 12.3066744  12.9091062  12.9091062  13.20337482 15.47298678 15.47298678
 15.55349714 15.55349714 15.61368959 15.61368959 15.68985907 15.68985907
 15.71700647 15.86545588 15.86545588 16.13792615 16.13792615 16.19280538
 16.26183595 16.26183595 16.2792502  16.2792502  16.31843434 16.31843434
 16.72756267 16.72756267 17.22203205 17.72335934 33.70157721 33.8311072 ]
E1 = -118.35092647097443  E_coul = 52.1651456683627
cycle= 6 E= -47.8245831428751  delta_E= -1.62e-07  |g|= 9.95e-05  |ddm|= 0.00118
    CPU time for cycle= 6     24.53 sec, wall time      0.19 sec
  HOMO = -0.666806255323482  LUMO = 0.0808942192001493
  mo_energy =
[-1.78414175 -1.51930089 -0.81092514 -0.81092514 -0.75140081 -0.66680626
 -0.66680626  0.08089422  0.53575728  0.60527085  0.60527085  0.69273304
  0.71082146  0.71082146  0.93073349  1.42119775  1.42119775  1.43868943
  1.43868943  1.46445126  1.73459034  1.73459034  2.01676732  2.12065536
  2.19419013  2.19419013  2.87824623  2.87824623  2.98985296  3.11528518
  3.11528518  4.09233145  4.23793876  4.23793876  4.24764468  4.24764468
  4.3038216   4.529317    4.529317    4.6798954   4.6798954   5.00388134
  5.00388134  5.27648817  5.27648817  5.3995309   5.3995309   5.41525213
  5.47213583  5.47213583  5.47972909  5.47972909  5.58257011  5.77519355
  6.23892649  6.23892649  6.53982844  7.41787532 10.54408148 10.54408148
 10.65835408 10.65835408 10.70588337 11.51346387 11.51346387 11.76068969
 11.76132418 11.76132418 11.89743387 11.97639181 11.97639181 12.0649847
 12.0649847  12.07263801 12.07263801 12.08217318 12.08217318 12.30667584
 12.30667584 12.909114   12.909114   13.20338522 15.47298238 15.47298238
 15.55350298 15.55350298 15.61368202 15.61368202 15.68985089 15.68985089
 15.71701578 15.86545454 15.86545454 16.13791633 16.13791633 16.19278482
 16.26181974 16.26181974 16.27923429 16.27923429 16.3184331  16.3184331
 16.72754591 16.72754591 17.22201383 17.72336055 33.70155954 33.83109037]
E1 = -118.35094033993963  E_coul = 52.165159534848755
cycle= 7 E= -47.8245831453543  delta_E= -2.48e-09  |g|= 6.68e-06  |ddm|= 0.000129
    CPU time for cycle= 7     38.85 sec, wall time      0.30 sec
  HOMO = -0.666806053207556  LUMO = 0.0808935018478739
  mo_energy =
[-1.78414251 -1.51930194 -0.81092492 -0.81092492 -0.75140111 -0.66680605
 -0.66680605  0.0808935   0.53575659  0.60527102  0.60527102  0.69273264
  0.71082149  0.71082149  0.93073314  1.42119783  1.42119783  1.43868942
  1.43868942  1.46445098  1.73459026  1.73459026  2.01676694  2.12065486
  2.19418999  2.19418999  2.8782461   2.8782461   2.98985243  3.11528506
  3.11528506  4.09233121  4.23793866  4.23793866  4.24764455  4.24764455
  4.30382123  4.52931693  4.52931693  4.67989532  4.67989532  5.0038812
  5.0038812   5.27648796  5.27648796  5.39953057  5.39953057  5.41525164
  5.47213561  5.47213561  5.47972873  5.47972873  5.58256951  5.77519297
  6.23892626  6.23892626  6.53982799  7.41787485 10.54408078 10.54408078
 10.6583534  10.6583534  10.70588273 11.51346356 11.51346356 11.76068899
 11.76132386 11.76132386 11.89743346 11.97639148 11.97639148 12.06498437
 12.06498437 12.07263767 12.07263767 12.08217285 12.08217285 12.30667553
 12.30667553 12.90911369 12.90911369 13.20338485 15.47298178 15.47298178
 15.55350239 15.55350239 15.6136814  15.6136814  15.68985027 15.68985027
 15.71701513 15.86545394 15.86545394 16.13791558 16.13791558 16.19278415
 16.261819   16.261819   16.27923357 16.27923357 16.31843237 16.31843237
 16.72754534 16.72754534 17.22201321 17.72335997 33.70155832 33.83108916]
E1 = -118.35094386068886  E_coul = 52.16516305558481
cycle= 8 E= -47.8245831453675  delta_E= -1.32e-11  |g|= 8.53e-07  |ddm|= 1.07e-05
    CPU time for cycle= 8     54.66 sec, wall time      0.43 sec
  HOMO = -0.666806195662481  LUMO = 0.0808932979592435
  mo_energy =
[-1.78414276 -1.51930223 -0.81092505 -0.81092505 -0.7514014  -0.6668062
 -0.6668062   0.0808933   0.53575646  0.60527102  0.60527102  0.69273255
  0.71082148  0.71082148  0.93073305  1.42119774  1.42119774  1.43868935
  1.43868935  1.4644509   1.73459019  1.73459019  2.01676684  2.12065471
  2.19418991  2.19418991  2.87824598  2.87824598  2.98985222  3.11528495
  3.11528495  4.09233108  4.23793856  4.23793856  4.24764444  4.24764444
  4.3038211   4.52931685  4.52931685  4.67989524  4.67989524  5.00388109
  5.00388109  5.2764878   5.2764878   5.39953039  5.39953039  5.41525145
  5.47213547  5.47213547  5.47972856  5.47972856  5.58256929  5.77519277
  6.23892612  6.23892612  6.5398278   7.41787464 10.54408048 10.54408048
 10.6583531  10.6583531  10.70588245 11.51346338 11.51346338 11.76068869
 11.76132369 11.76132369 11.89743324 11.97639131 11.97639131 12.06498421
 12.06498421 12.07263752 12.07263752 12.08217268 12.08217268 12.30667536
 12.30667536 12.90911351 12.90911351 13.20338465 15.47298152 15.47298152
 15.55350213 15.55350213 15.61368113 15.61368113 15.68985001 15.68985001
 15.71701484 15.86545367 15.86545367 16.13791525 16.13791525 16.19278387
 16.26181868 16.26181868 16.27923327 16.27923327 16.31843205 16.31843205
 16.7275451  16.7275451  17.22201295 17.72335969 33.70155782 33.83108866]
E1 = -118.35094451254561  E_coul = 52.165163707441494
Extra cycle  E= -47.8245831453675  delta_E= -7.11e-14  |g|= 2.33e-07  |ddm|= 1.15e-06
    CPU time for scf_cycle    530.89 sec, wall time      4.43 sec
    CPU time for SCF    531.36 sec, wall time      4.43 sec
converged SCF energy = -47.8245831453675
