#INFO: **** input file is /home/nkousuke/lustre/toBeSync/turboRVB/05turbo-genius-development/turbogenius_paper/04data/sanity_checks/02pyscf_prep_LDA_via_trexio/00open_boundary/results/Na2/pyscf-LDA-workflow/run.py ****

from pyscf_wrapper import Pyscf_wrapper

# input variables
pyscf_chkfile="pyscf.chk"
structure_file="Na2.xyz"

# input variables
omp_num_threads=128
charge=0
spin=0
basis="ccecp-ccpvqz"
ecp="ccecp"
scf_method="DFT"
dft_xc="LDA_X,LDA_C_PZ"
solver_newton=False
MP2_flag=False
CCSD_flag=False
pyscf_output="out.pyscf"
twist_average=False
exp_to_discard=0.1
kpt=[0.0, 0.0, 0.0]
kpt_grid=[1, 1, 1]
smearing_method="fermi"
smearing_sigma=0.0

pyscf_calc=Pyscf_wrapper(
                        structure_file=structure_file,
                        chkfile=pyscf_chkfile,
                        )

pyscf_calc.run_pyscf(
                  omp_num_threads=omp_num_threads,
                  charge=charge,
                  spin=spin,
                  basis=basis,
                  ecp=ecp,
                  scf_method=scf_method,
                  dft_xc=dft_xc,
                  solver_newton=solver_newton,
                  MP2_flag=MP2_flag,
                  CCSD_flag=CCSD_flag,
                  pyscf_output=pyscf_output,
                  twist_average=twist_average,
                  exp_to_discard=exp_to_discard,
                  kpt=kpt,
                  kpt_grid=kpt_grid,
                  smearing_method=smearing_method,
                  smearing_sigma=smearing_sigma
                  )
                #INFO: ******************** input file end ********************


System: uname_result(system='Linux', node='spcc-104', release='5.4.0-66-generic', version='#74-Ubuntu SMP Wed Jan 27 22:54:38 UTC 2021', machine='x86_64', processor='x86_64')  Threads 128
Python 3.7.3 (default, Mar 27 2019, 22:11:17) 
[GCC 7.3.0]
numpy 1.21.6  scipy 1.7.3
Date: Wed Dec 28 11:29:56 2022
PySCF version 2.1.1
PySCF path  /home/nkousuke/application/anaconda3/lib/python3.7/site-packages/pyscf

[CONFIG] conf_file /home/nkousuke/.pyscf_conf.py
[INPUT] verbose = 5
[INPUT] max_memory = 505168.6953125 
[INPUT] num. atoms = 2
[INPUT] num. electrons = 2
[INPUT] charge = 0
[INPUT] spin (= nelec alpha-beta = 2S) = 0
[INPUT] symmetry False subgroup None
[INPUT] Mole.unit = A
[INPUT] Symbol           X                Y                Z      unit          X                Y                Z       unit  Magmom
[INPUT]  1 Na     0.000000000000   0.000000000000   0.000000000000 AA    0.000000000000   0.000000000000   0.000000000000 Bohr   0.0
[INPUT]  2 Na     0.000000000000   0.000000000000   3.078900000000 AA    0.000000000000   0.000000000000   5.818277764923 Bohr   0.0
[INPUT] ---------------- BASIS SET ---------------- 
[INPUT] l, kappa, [nprim/nctr], expnt,             c_1 c_2 ...
[INPUT] Na
[INPUT] 0    0    [10   /1   ]  22.091548         -6.4e-05
                                9.660603          0.000452
                                4.224568          -0.002616
                                1.847398          0.024309
                                0.807864          -0.099989
                                0.353278          -0.109801
                                0.154488          0.032993
                                0.067557          0.37763
                                0.029543          0.400459
                                0.012919          0.072453
[INPUT] 0    0    [1    /1   ]  0.01612              1
[INPUT] 0    0    [1    /1   ]  0.03289              1
[INPUT] 0    0    [1    /1   ]  0.067106             1
[INPUT] 1    0    [10   /1   ]  9.29421           1.1e-05
                                4.233556          -8.1e-05
                                1.928405          0.000955
                                0.878398          -0.006278
                                0.400114          -0.009165
                                0.182254          0.011214
                                0.083018          0.064076
                                0.037815          0.027336
                                0.017225          0.027603
                                0.007846          -0.005374
[INPUT] 1    0    [1    /1   ]  0.01342              1
[INPUT] 1    0    [1    /1   ]  0.03126              1
[INPUT] 1    0    [1    /1   ]  0.072816             1
[INPUT] 2    0    [1    /1   ]  0.0487               1
[INPUT] 2    0    [1    /1   ]  0.0865               1
[INPUT] 2    0    [1    /1   ]  0.15364              1
[INPUT] 3    0    [1    /1   ]  0.1036               1
[INPUT] 3    0    [1    /1   ]  0.1912               1
[INPUT] 4    0    [1    /1   ]  0.1722               1

nuclear repulsion = 0.171872165682549
number of shells = 28
number of NR pGTOs = 180
number of NR cGTOs = 108
basis = ccecp-ccpvqz
ecp = ccecp
CPU time:         1.23


******** <class 'pyscf.df.df_jk.density_fit.<locals>.DensityFitting'> ********
method = DensityFitting-RKS
initial guess = minao
damping factor = 0
level_shift factor = 0
DIIS = <class 'pyscf.scf.diis.CDIIS'>
diis_start_cycle = 1
diis_space = 8
SCF conv_tol = 1e-09
SCF conv_tol_grad = None
SCF max_cycles = 200
direct_scf = True
direct_scf_tol = 1e-13
chkfile to save SCF result = pyscf.chk
max_memory 505168 MB (current use 103 MB)
XC library pyscf.dft.libxc version 5.2.0
    S. Lehtola, C. Steigemann, M. J. Oliveira, and M. A. Marques, SoftwareX 7, 1 (2018)
XC functionals = LDA_X,LDA_C_PZ
    P. A. M. Dirac, Math. Proc. Cambridge Philos. Soc. 26, 376 (1930)
    F. Bloch, Z. Phys. 57, 545 (1929)
    J. P. Perdew and A. Zunger, Phys. Rev. B 23, 5048 (1981)
radial grids: 
    Treutler-Ahlrichs [JCP 102, 346 (1995); DOI:10.1063/1.469408] (M4) radial grids
    
becke partition: Becke, JCP 88, 2547 (1988); DOI:10.1063/1.454033
pruning grids: <function nwchem_prune at 0x1510f2b6a158>
grids dens level: 3
symmetrized grids: False
atomic radii adjust function: <function treutler_atomic_radii_adjust at 0x1510f2b6a048>
small_rho_cutoff = 1e-07
Set gradient conv threshold to 3.16228e-05
atom Na rad-grids = 80, ang-grids = [ 50  50  50  50  50  50  50  50  50  50  50  50  50  50  50  50  50  50
  50  50  50  50  50  50  50  50  50  50  86  86  86  86  86  86  86  86
  86  86  86  86  86  86  86  86 350 350 350 350 350 350 350 350 350 350
 350 434 434 434 434 434 434 434 434 434 434 434 434 434 434 434 434 434
 434 350 350 350 350 350 350 350]
tot_boxes 1134, boxes in each direction [ 7  7 12]
Padding 0 grids
tot grids = 33776
Drop grids 838
prune_by_density_: 6 padding grids
    CPU time for setting up grids     14.84 sec, wall time      0.15 sec
nelec by numeric integration = 2.0000015162614324
    CPU time for vxc     15.03 sec, wall time      0.13 sec
Even tempered Gaussians are generated as DF auxbasis for  Na
  ETB auxbasis for Na  [[0, [6.614528, 1]], [0, [3.307264, 1]], [0, [1.653632, 1]], [0, [0.826816, 1]], [0, [0.413408, 1]], [0, [0.206704, 1]], [0, [0.103352, 1]], [0, [0.051676, 1]], [0, [0.025838, 1]], [1, [2.5773806657271257, 1]], [1, [1.2886903328635628, 1]], [1, [0.6443451664317814, 1]], [1, [0.3221725832158907, 1]], [1, [0.16108629160794535, 1]], [1, [0.08054314580397268, 1]], [1, [0.04027157290198634, 1]], [1, [0.02013578645099317, 1]], [2, [1.004288, 1]], [2, [0.502144, 1]], [2, [0.251072, 1]], [2, [0.125536, 1]], [2, [0.062768, 1]], [2, [0.031384, 1]], [2, [0.015692, 1]], [3, [0.6255162706117244, 1]], [3, [0.3127581353058622, 1]], [3, [0.1563790676529311, 1]], [3, [0.07818953382646555, 1]], [3, [0.03909476691323278, 1]], [4, [0.3896, 1]], [4, [0.1948, 1]], [4, [0.0974, 1]]]
num shells = 64, num cGTOs = 260
    CPU time for df-vj     11.18 sec, wall time      0.09 sec
E1 = -0.6758323348813888  Ecoul = 0.3663167236516525  Exc = -0.21440899098131444
init E= -0.352052436528502
cond(S) = 37101.435099263246
    CPU time for initialize scf     63.17 sec, wall time      0.67 sec
  HOMO = -0.137282349797689  LUMO = -0.0765295069264317
  mo_energy =
[-0.13728235 -0.07652951 -0.05266097 -0.05266097 -0.03203202 -0.00868855
 -0.00868855  0.00437183  0.00752579  0.01800894  0.01800894  0.02582624
  0.03453023  0.03453023  0.04024147  0.04024147  0.04194535  0.05954446
  0.06601941  0.06601941  0.08106452  0.08106452  0.09458488  0.13200215
  0.13666905  0.13666905  0.14047796  0.14047796  0.14057963  0.15544566
  0.16605642  0.16605642  0.18288462  0.2187863   0.21878632  0.23242818
  0.23242818  0.25162863  0.25162863  0.27187735  0.27187746  0.28038416
  0.28038427  0.28096145  0.28766192  0.31560359  0.31560359  0.34171812
  0.34171812  0.38135233  0.38135233  0.3921688   0.40100817  0.40511391
  0.40511395  0.49379095  0.49403185  0.49403185  0.61635288  0.61635288
  0.6249966   0.64057776  0.64057781  0.6743454   0.67434541  0.69638546
  0.69638546  0.71320271  0.71320271  0.73050638  0.7305064   0.7475406
  0.74797658  0.74797658  0.78427351  0.78427353  0.81411158  0.86969717
  0.86969717  0.87845437  0.87845437  0.88256333  0.88256333  0.9158435
  0.9158439   0.92161261  0.92161261  0.96303131  0.98090565  0.98090613
  0.98344551  0.98344551  0.99616299  1.02450302  1.02450302  1.08709954
  1.08875215  1.08875259  1.23540971  1.23540971  2.24164324  2.24164324
  2.60370416  2.64273158  2.64273158  2.87922885  3.56037987  4.3178235 ]
nelec by numeric integration = 1.999999429676086
    CPU time for vxc     14.22 sec, wall time      0.12 sec
    CPU time for df-vj      6.28 sec, wall time      0.06 sec
E1 = -0.7653945908201537  Ecoul = 0.44907326704221007  Exc = -0.2511828688180545
cycle= 1 E= -0.395632026913449  delta_E= -0.0436  |g|= 0.04  |ddm|= 1.18
    CPU time for cycle= 1     22.61 sec, wall time      0.20 sec
  HOMO = -0.0996574174541697  LUMO = -0.0569872096206648
  mo_energy =
[-0.09965742 -0.05698721 -0.02809725 -0.02809725 -0.01165731  0.00571515
  0.00571515  0.01487404  0.01834868  0.03145296  0.03145296  0.0367668
  0.05166483  0.05166483  0.05284576  0.05455157  0.05455158  0.07165311
  0.08284765  0.08284765  0.09734925  0.09734925  0.11759427  0.14450378
  0.15009845  0.15009845  0.15599207  0.16595596  0.16595596  0.17357133
  0.18717379  0.18717379  0.20248439  0.24726258  0.24726261  0.25730333
  0.25730333  0.27671738  0.27671738  0.29470031  0.29470041  0.30160798
  0.30160808  0.30743644  0.3095447   0.33776489  0.33776489  0.36275568
  0.36275568  0.40267287  0.40267287  0.41715532  0.41839833  0.42621147
  0.42621147  0.51757531  0.51757531  0.52972173  0.65424192  0.65539225
  0.65539225  0.67397929  0.67397932  0.70508627  0.70508628  0.72916958
  0.72916958  0.74147639  0.74147639  0.76030549  0.7603055   0.78532043
  0.78803149  0.7880315   0.81302628  0.81302629  0.84580304  0.90619941
  0.90619941  0.91057883  0.91057883  0.91635824  0.91635824  0.9420396
  0.94203992  0.94912901  0.94912901  0.99677959  1.0056196   1.0056196
  1.01021469  1.01021518  1.02927583  1.04855075  1.04855075  1.12023316
  1.12088013  1.12088047  1.28168522  1.28168522  2.27362065  2.27362065
  2.6446922   2.67918993  2.67918993  2.91255935  3.6034127   4.37033927]
nelec by numeric integration = 2.0000010146929226
    CPU time for vxc     14.25 sec, wall time      0.12 sec
    CPU time for df-vj      5.12 sec, wall time      0.04 sec
E1 = -0.737798874758467  Ecoul = 0.3919293772952837  Exc = -0.2237280376014615
cycle= 2 E= -0.397725369382096  delta_E= -0.00209  |g|= 0.0237  |ddm|= 0.401
    CPU time for cycle= 2     21.71 sec, wall time      0.19 sec
  HOMO = -0.11423548314169  LUMO = -0.0652742742228313
  mo_energy =
[-1.14235483e-01 -6.52742742e-02 -3.78979559e-02 -3.78979559e-02
 -2.04555177e-02 -2.70351896e-04 -2.70351896e-04  1.16006746e-02
  1.21016996e-02  2.57310074e-02  2.57310074e-02  3.16433905e-02
  4.60062374e-02  4.60062414e-02  4.67316712e-02  4.67316712e-02
  4.78541910e-02  6.62475366e-02  7.52721977e-02  7.52721977e-02
  9.03741184e-02  9.03741230e-02  1.07707136e-01  1.38705376e-01
  1.43843775e-01  1.43843775e-01  1.48897237e-01  1.55313927e-01
  1.55313927e-01  1.65298034e-01  1.78516074e-01  1.78516074e-01
  1.94240798e-01  2.35717225e-01  2.35717248e-01  2.46752238e-01
  2.46752238e-01  2.66411455e-01  2.66411455e-01  2.85537334e-01
  2.85537437e-01  2.92468841e-01  2.92468946e-01  2.97561870e-01
  2.98580926e-01  3.28719074e-01  3.28719074e-01  3.53765917e-01
  3.53765917e-01  3.93351279e-01  3.93351279e-01  4.06220359e-01
  4.10586073e-01  4.17171648e-01  4.17171655e-01  5.07710653e-01
  5.07710653e-01  5.15106965e-01  6.39365201e-01  6.39365201e-01
  6.42002305e-01  6.60641788e-01  6.60641818e-01  6.92809898e-01
  6.92809913e-01  7.15907425e-01  7.15907425e-01  7.29631604e-01
  7.29631604e-01  7.48612849e-01  7.48612871e-01  7.69646117e-01
  7.71753620e-01  7.71753622e-01  8.01803635e-01  8.01803659e-01
  8.32629091e-01  8.91035106e-01  8.91035106e-01  8.97957760e-01
  8.97957760e-01  9.03112038e-01  9.03112038e-01  9.31124059e-01
  9.31124406e-01  9.38049245e-01  9.38049245e-01  9.82945316e-01
  9.96168935e-01  9.96168935e-01  9.98327855e-01  9.98328356e-01
  1.01533230e+00  1.03840122e+00  1.03840122e+00  1.10622046e+00
  1.10765009e+00  1.10765047e+00  1.26303742e+00  1.26303742e+00
  2.25957413e+00  2.25957413e+00  2.62681075e+00  2.66308796e+00
  2.66308796e+00  2.89666725e+00  3.58600342e+00  4.35069213e+00]
nelec by numeric integration = 2.000000423483289
    CPU time for vxc     13.65 sec, wall time      0.12 sec
    CPU time for df-vj      4.75 sec, wall time      0.04 sec
E1 = -0.7500714727793953  Ecoul = 0.41284226028269144  Exc = -0.2337040980850394
cycle= 3 E= -0.399061144899194  delta_E= -0.00134  |g|= 0.000427  |ddm|= 0.147
    CPU time for cycle= 3     20.56 sec, wall time      0.18 sec
  HOMO = -0.114085910711765  LUMO = -0.0652555004329547
  mo_energy =
[-1.14085911e-01 -6.52555004e-02 -3.77388879e-02 -3.77388879e-02
 -2.04657348e-02 -1.87398786e-04 -1.87398786e-04  1.16789805e-02
  1.21835069e-02  2.58536314e-02  2.58536314e-02  3.16951672e-02
  4.61505957e-02  4.61505998e-02  4.68285517e-02  4.68285517e-02
  4.79040763e-02  6.63186849e-02  7.53139226e-02  7.53139226e-02
  9.04777726e-02  9.04777773e-02  1.07778266e-01  1.38714328e-01
  1.43871177e-01  1.43871177e-01  1.48930457e-01  1.55463420e-01
  1.55463420e-01  1.65341190e-01  1.78658629e-01  1.78658629e-01
  1.94350716e-01  2.35920274e-01  2.35920297e-01  2.46829574e-01
  2.46829574e-01  2.66595713e-01  2.66595713e-01  2.85701708e-01
  2.85701811e-01  2.92535288e-01  2.92535393e-01  2.97593999e-01
  2.98578873e-01  3.28874090e-01  3.28874090e-01  3.53803888e-01
  3.53803888e-01  3.93361895e-01  3.93361895e-01  4.06243806e-01
  4.10550591e-01  4.17242845e-01  4.17242851e-01  5.07802169e-01
  5.07802169e-01  5.15284030e-01  6.39459056e-01  6.39459056e-01
  6.42070704e-01  6.60849635e-01  6.60849664e-01  6.93025300e-01
  6.93025316e-01  7.16057559e-01  7.16057559e-01  7.29713554e-01
  7.29713554e-01  7.48842346e-01  7.48842368e-01  7.69656904e-01
  7.71892086e-01  7.71892088e-01  8.02028657e-01  8.02028681e-01
  8.32693564e-01  8.91085050e-01  8.91085050e-01  8.98192696e-01
  8.98192696e-01  9.03303587e-01  9.03303587e-01  9.31204681e-01
  9.31205029e-01  9.38237171e-01  9.38237171e-01  9.83000452e-01
  9.96188374e-01  9.96188374e-01  9.98420446e-01  9.98420949e-01
  1.01536545e+00  1.03844344e+00  1.03844344e+00  1.10625012e+00
  1.10776035e+00  1.10776073e+00  1.26314159e+00  1.26314159e+00
  2.25980321e+00  2.25980321e+00  2.62696648e+00  2.66334305e+00
  2.66334305e+00  2.89682376e+00  3.58625553e+00  4.35095884e+00]
nelec by numeric integration = 2.0000004267785223
    CPU time for vxc     14.04 sec, wall time      0.12 sec
    CPU time for df-vj      4.67 sec, wall time      0.04 sec
E1 = -0.7499645567121523  Ecoul = 0.41265537680000974  Exc = -0.2336245046139211
cycle= 4 E= -0.399061518843515  delta_E= -3.74e-07  |g|= 0.000138  |ddm|= 0.00255
    CPU time for cycle= 4     20.82 sec, wall time      0.18 sec
  HOMO = -0.114119934513582  LUMO = -0.0653046572576495
  mo_energy =
[-1.14119935e-01 -6.53046573e-02 -3.77441332e-02 -3.77441332e-02
 -2.05355891e-02 -1.99190327e-04 -1.99190327e-04  1.16819515e-02
  1.21730151e-02  2.58616800e-02  2.58616800e-02  3.16804880e-02
  4.61482535e-02  4.61482575e-02  4.68333384e-02  4.68333384e-02
  4.78848442e-02  6.63052001e-02  7.52723011e-02  7.52723011e-02
  9.04705003e-02  9.04705049e-02  1.07744508e-01  1.38674127e-01
  1.43832124e-01  1.43832124e-01  1.48895265e-01  1.55454830e-01
  1.55454830e-01  1.65295015e-01  1.78657398e-01  1.78657398e-01
  1.94338632e-01  2.35920480e-01  2.35920502e-01  2.46789159e-01
  2.46789159e-01  2.66597710e-01  2.66597710e-01  2.85706028e-01
  2.85706131e-01  2.92498772e-01  2.92498877e-01  2.97532917e-01
  2.98513136e-01  3.28876236e-01  3.28876236e-01  3.53755627e-01
  3.53755627e-01  3.93302017e-01  3.93302017e-01  4.06182209e-01
  4.10482201e-01  4.17207864e-01  4.17207870e-01  5.07773795e-01
  5.07773795e-01  5.15265919e-01  6.39400752e-01  6.39400752e-01
  6.42022226e-01  6.60849424e-01  6.60849454e-01  6.93035513e-01
  6.93035528e-01  7.16028999e-01  7.16028999e-01  7.29672889e-01
  7.29672889e-01  7.48856280e-01  7.48856302e-01  7.69568488e-01
  7.71845406e-01  7.71845408e-01  8.02045103e-01  8.02045128e-01
  8.32639353e-01  8.91016393e-01  8.91016393e-01  8.98207343e-01
  8.98207343e-01  9.03290845e-01  9.03290845e-01  9.31169253e-01
  9.31169601e-01  9.38245637e-01  9.38245637e-01  9.82935218e-01
  9.96136325e-01  9.96136325e-01  9.98384280e-01  9.98384782e-01
  1.01529791e+00  1.03839670e+00  1.03839670e+00  1.10618095e+00
  1.10772017e+00  1.10772055e+00  1.26307542e+00  1.26307542e+00
  2.25981694e+00  2.25981694e+00  2.62692846e+00  2.66335874e+00
  2.66335874e+00  2.89679759e+00  3.58626596e+00  4.35096390e+00]
nelec by numeric integration = 2.000000424877066
    CPU time for vxc     13.62 sec, wall time      0.12 sec
    CPU time for df-vj      4.67 sec, wall time      0.04 sec
E1 = -0.74998197859818  Ecoul = 0.41269549212369044  Exc = -0.23364722815597064
cycle= 5 E= -0.399061548947911  delta_E= -3.01e-08  |g|= 6.72e-06  |ddm|= 0.00095
    CPU time for cycle= 5     20.41 sec, wall time      0.18 sec
  HOMO = -0.114119959476771  LUMO = -0.0653039100079077
  mo_energy =
[-1.14119959e-01 -6.53039100e-02 -3.77450254e-02 -3.77450254e-02
 -2.05350297e-02 -1.99451652e-04 -1.99451652e-04  1.16805385e-02
  1.21730736e-02  2.58609406e-02  2.58609406e-02  3.16799192e-02
  4.61474213e-02  4.61474253e-02  4.68327037e-02  4.68327037e-02
  4.78846870e-02  6.63041342e-02  7.52723569e-02  7.52723569e-02
  9.04703635e-02  9.04703682e-02  1.07744953e-01  1.38674393e-01
  1.43832100e-01  1.43832100e-01  1.48895799e-01  1.55454282e-01
  1.55454282e-01  1.65294344e-01  1.78656580e-01  1.78656580e-01
  1.94338003e-01  2.35919034e-01  2.35919056e-01  2.46789408e-01
  2.46789408e-01  2.66596416e-01  2.66596416e-01  2.85705222e-01
  2.85705325e-01  2.92499223e-01  2.92499328e-01  2.97534124e-01
  2.98513205e-01  3.28875603e-01  3.28875603e-01  3.53755911e-01
  3.53755911e-01  3.93302886e-01  3.93302886e-01  4.06183380e-01
  4.10483675e-01  4.17207942e-01  4.17207949e-01  5.07773921e-01
  5.07773921e-01  5.15265348e-01  6.39401889e-01  6.39401889e-01
  6.42022672e-01  6.60848314e-01  6.60848344e-01  6.93034182e-01
  6.93034197e-01  7.16028705e-01  7.16028705e-01  7.29673296e-01
  7.29673296e-01  7.48854703e-01  7.48854725e-01  7.69570845e-01
  7.71845840e-01  7.71845842e-01  8.02043644e-01  8.02043668e-01
  8.32640296e-01  8.91017946e-01  8.91017946e-01  8.98205841e-01
  8.98205841e-01  9.03289751e-01  9.03289751e-01  9.31169653e-01
  9.31170000e-01  9.38244822e-01  9.38244822e-01  9.82936307e-01
  9.96137361e-01  9.96137361e-01  9.98384708e-01  9.98385210e-01
  1.01529963e+00  1.03839760e+00  1.03839760e+00  1.10618274e+00
  1.10772038e+00  1.10772076e+00  1.26307682e+00  1.26307682e+00
  2.25981471e+00  2.25981471e+00  2.62692811e+00  2.66335624e+00
  2.66335624e+00  2.89679671e+00  3.58626321e+00  4.35096130e+00]
nelec by numeric integration = 2.000000424961343
    CPU time for vxc     14.12 sec, wall time      0.12 sec
    CPU time for df-vj      5.02 sec, wall time      0.04 sec
E1 = -0.7499816504501983  Ecoul = 0.41269456593856607  Exc = -0.23364663017740095
cycle= 6 E= -0.399061549006484  delta_E= -5.86e-11  |g|= 9.02e-08  |ddm|= 3.12e-05
    CPU time for cycle= 6     21.26 sec, wall time      0.18 sec
  HOMO = -0.114119842725104  LUMO = -0.0653038298403335
  mo_energy =
[-1.14119843e-01 -6.53038298e-02 -3.77449177e-02 -3.77449177e-02
 -2.05349787e-02 -1.99371926e-04 -1.99371926e-04  1.16805168e-02
  1.21731652e-02  2.58609996e-02  2.58609996e-02  3.16799167e-02
  4.61475377e-02  4.61475417e-02  4.68327408e-02  4.68327408e-02
  4.78847481e-02  6.63041452e-02  7.52724415e-02  7.52724415e-02
  9.04704836e-02  9.04704883e-02  1.07745038e-01  1.38674440e-01
  1.43832176e-01  1.43832176e-01  1.48895885e-01  1.55454387e-01
  1.55454387e-01  1.65294390e-01  1.78656664e-01  1.78656664e-01
  1.94338076e-01  2.35919142e-01  2.35919164e-01  2.46789507e-01
  2.46789507e-01  2.66596526e-01  2.66596526e-01  2.85705322e-01
  2.85705425e-01  2.92499330e-01  2.92499435e-01  2.97534204e-01
  2.98513245e-01  3.28875716e-01  3.28875716e-01  3.53755991e-01
  3.53755991e-01  3.93302967e-01  3.93302967e-01  4.06183473e-01
  4.10483745e-01  4.17208042e-01  4.17208049e-01  5.07774020e-01
  5.07774020e-01  5.15265461e-01  6.39402019e-01  6.39402019e-01
  6.42022755e-01  6.60848426e-01  6.60848455e-01  6.93034288e-01
  6.93034303e-01  7.16028822e-01  7.16028822e-01  7.29673401e-01
  7.29673401e-01  7.48854799e-01  7.48854821e-01  7.69570954e-01
  7.71845959e-01  7.71845961e-01  8.02043738e-01  8.02043762e-01
  8.32640391e-01  8.91018057e-01  8.91018057e-01  8.98205939e-01
  8.98205939e-01  9.03289859e-01  9.03289859e-01  9.31169759e-01
  9.31170107e-01  9.38244921e-01  9.38244921e-01  9.82936412e-01
  9.96137446e-01  9.96137446e-01  9.98384822e-01  9.98385324e-01
  1.01529974e+00  1.03839769e+00  1.03839769e+00  1.10618284e+00
  1.10772049e+00  1.10772087e+00  1.26307695e+00  1.26307695e+00
  2.25981482e+00  2.25981482e+00  2.62692826e+00  2.66335637e+00
  2.66335637e+00  2.89679686e+00  3.58626335e+00  4.35096144e+00]
nelec by numeric integration = 2.0000004249662604
    CPU time for vxc     14.22 sec, wall time      0.12 sec
    CPU time for df-vj      5.38 sec, wall time      0.04 sec
E1 = -0.7499816039037888  Ecoul = 0.4126944798289592  Exc = -0.2336465906142151
Extra cycle  E= -0.399061549006496  delta_E= -1.15e-14  |g|= 3.98e-08  |ddm|= 9.89e-07
    CPU time for scf_cycle    212.39 sec, wall time      1.97 sec
    CPU time for SCF    212.39 sec, wall time      1.98 sec
converged SCF energy = -0.399061549006496
