#INFO: **** input file is /home/nkousuke/lustre/toBeSync/turboRVB/05turbo-genius-development/turbogenius_paper/04data/sanity_checks/02pyscf_prep_LDA_via_trexio/00open_boundary/results/CH3Cl/pyscf-LDA-workflow/run.py ****

from pyscf_wrapper import Pyscf_wrapper

# input variables
pyscf_chkfile="pyscf.chk"
structure_file="CH3Cl.xyz"

# input variables
omp_num_threads=128
charge=0
spin=0
basis="ccecp-ccpvqz"
ecp="ccecp"
scf_method="DFT"
dft_xc="LDA_X,LDA_C_PZ"
solver_newton=False
MP2_flag=False
CCSD_flag=False
pyscf_output="out.pyscf"
twist_average=False
exp_to_discard=0.1
kpt=[0.0, 0.0, 0.0]
kpt_grid=[1, 1, 1]
smearing_method="fermi"
smearing_sigma=0.0

pyscf_calc=Pyscf_wrapper(
                        structure_file=structure_file,
                        chkfile=pyscf_chkfile,
                        )

pyscf_calc.run_pyscf(
                  omp_num_threads=omp_num_threads,
                  charge=charge,
                  spin=spin,
                  basis=basis,
                  ecp=ecp,
                  scf_method=scf_method,
                  dft_xc=dft_xc,
                  solver_newton=solver_newton,
                  MP2_flag=MP2_flag,
                  CCSD_flag=CCSD_flag,
                  pyscf_output=pyscf_output,
                  twist_average=twist_average,
                  exp_to_discard=exp_to_discard,
                  kpt=kpt,
                  kpt_grid=kpt_grid,
                  smearing_method=smearing_method,
                  smearing_sigma=smearing_sigma
                  )
                #INFO: ******************** input file end ********************


System: uname_result(system='Linux', node='spcc-109', release='5.4.0-66-generic', version='#74-Ubuntu SMP Wed Jan 27 22:54:38 UTC 2021', machine='x86_64', processor='x86_64')  Threads 128
Python 3.7.3 (default, Mar 27 2019, 22:11:17) 
[GCC 7.3.0]
numpy 1.20.1  scipy 1.7.3
Date: Thu Dec 22 07:24:26 2022
PySCF version 2.0.1
PySCF path  /home/nkousuke/application/anaconda3/lib/python3.7/site-packages/pyscf

[CONFIG] conf_file /home/nkousuke/.pyscf_conf.py
[INPUT] verbose = 5
[INPUT] max_memory = 507890.82421875 
[INPUT] num. atoms = 5
[INPUT] num. electrons = 14
[INPUT] charge = 0
[INPUT] spin (= nelec alpha-beta = 2S) = 0
[INPUT] symmetry False subgroup None
[INPUT] Mole.unit = A
[INPUT]  1 C      0.000000000000   0.000000000000  -1.122560000000 AA    0.000000000000   0.000000000000  -2.121330958392 Bohr
[INPUT]  2 Cl     0.000000000000   0.000000000000   0.654640000000 AA    0.000000000000   0.000000000000   1.237090310185 Bohr
[INPUT]  3 H      0.000000000000   1.027917000000  -1.464503000000 AA    0.000000000000   1.942481608785  -2.767509578604 Bohr
[INPUT]  4 H      0.890203000000  -0.513959000000  -1.464503000000 AA    1.682239865266  -0.971241749255  -2.767509578604 Bohr
[INPUT]  5 H     -0.890203000000  -0.513959000000  -1.464503000000 AA   -1.682239865266  -0.971241749255  -2.767509578604 Bohr
[INPUT] ---------------- BASIS SET ---------------- 
[INPUT] l, kappa, [nprim/nctr], expnt,             c_1 c_2 ...
[INPUT] Cl
[INPUT] 0    0    [10   /1   ]  15.583847         0.002501
                                8.858485          -0.010046
                                5.035519          0.08581
                                2.862391          -0.290136
                                1.627098          -0.140314
                                0.924908          0.146839
                                0.525755          0.392484
                                0.29886           0.425061
                                0.169884          0.227195
                                0.096569          0.059828
[INPUT] 0    0    [1    /1   ]  1.038268             1
[INPUT] 0    0    [1    /1   ]  0.418863             1
[INPUT] 0    0    [1    /1   ]  0.16898              1
[INPUT] 1    0    [10   /1   ]  7.682894          -0.004609
                                4.507558          -0.001798
                                2.644587          -0.068614
                                1.551581          0.062352
                                0.910313          0.166337
                                0.534081          0.282292
                                0.313346          0.275967
                                0.18384           0.241328
                                0.107859          0.110223
                                0.063281          0.040289
[INPUT] 1    0    [1    /1   ]  2.626653             1
[INPUT] 1    0    [1    /1   ]  1.069041             1
[INPUT] 1    0    [1    /1   ]  0.435097             1
[INPUT] 2    0    [1    /1   ]  2.102692             1
[INPUT] 2    0    [1    /1   ]  0.763188             1
[INPUT] 2    0    [1    /1   ]  0.277005             1
[INPUT] 3    0    [1    /1   ]  1.139446             1
[INPUT] 3    0    [1    /1   ]  0.434852             1
[INPUT] 4    0    [1    /1   ]  0.844301             1
[INPUT] H
[INPUT] 0    0    [8    /1   ]  23.843185         0.0041149
                                10.212443         0.0104644
                                4.374164          0.0280111
                                1.873529          0.0758862
                                0.802465          0.1821062
                                0.343709          0.3485214
                                0.147217          0.3782313
                                0.063055          0.1164241
[INPUT] 0    0    [1    /1   ]  0.081856             1
[INPUT] 0    0    [1    /1   ]  0.233254             1
[INPUT] 0    0    [1    /1   ]  0.664673             1
[INPUT] 1    0    [1    /1   ]  0.284469             1
[INPUT] 1    0    [1    /1   ]  0.847159             1
[INPUT] 1    0    [1    /1   ]  2.522868             1
[INPUT] 2    0    [1    /1   ]  0.665279             1
[INPUT] 2    0    [1    /1   ]  2.048739             1
[INPUT] 3    0    [1    /1   ]  1.42146              1
[INPUT] C
[INPUT] 0    0    [9    /1   ]  13.073594         0.0051583
                                6.541187          0.0603424
                                4.573411          -0.1978471
                                1.637494          -0.081034
                                0.819297          0.2321726
                                0.409924          0.2914643
                                0.2313            0.4336405
                                0.102619          0.213194
                                0.051344          0.0049848
[INPUT] 0    0    [1    /1   ]  0.846879             1
[INPUT] 0    0    [1    /1   ]  0.269659             1
[INPUT] 0    0    [1    /1   ]  0.109576             1
[INPUT] 1    0    [9    /1   ]  9.934169          0.0209076
                                3.886955          0.0572698
                                1.871016          0.1122682
                                0.935757          0.2130082
                                0.468003          0.2835815
                                0.239473          0.3011207
                                0.117063          0.2016934
                                0.058547          0.0453575
                                0.029281          0.0029775
[INPUT] 1    0    [1    /1   ]  0.804681             1
[INPUT] 1    0    [1    /1   ]  0.313254             1
[INPUT] 1    0    [1    /1   ]  0.105389             1
[INPUT] 2    0    [1    /1   ]  2.01376              1
[INPUT] 2    0    [1    /1   ]  0.684884             1
[INPUT] 2    0    [1    /1   ]  0.240171             1
[INPUT] 3    0    [1    /1   ]  0.457302             1
[INPUT] 3    0    [1    /1   ]  1.32493              1
[INPUT] 4    0    [1    /1   ]  1.03418              1

nuclear repulsion = 19.8089536598428
number of shells = 58
number of NR pGTOs = 287
number of NR cGTOs = 198
basis = ccecp-ccpvqz
ecp = ccecp
CPU time:         5.60


******** <class 'pyscf.df.df_jk.density_fit.<locals>.DFHF'> ********
method = DFHF-RKS-RHF
initial guess = minao
damping factor = 0
level_shift factor = 0
DIIS = <class 'pyscf.scf.diis.CDIIS'>
diis_start_cycle = 1
diis_space = 8
SCF conv_tol = 1e-09
SCF conv_tol_grad = None
SCF max_cycles = 200
direct_scf = True
direct_scf_tol = 1e-13
chkfile to save SCF result = pyscf.chk
max_memory 507890 MB (current use 106 MB)
XC library pyscf.dft.libxc version 5.1.7
    S. Lehtola, C. Steigemann, M. J. Oliveira, and M. A. Marques, SoftwareX 7, 1 (2018)
XC functionals = LDA_X,LDA_C_PZ
    P. A. M. Dirac, Math. Proc. Cambridge Philos. Soc. 26, 376 (1930)
    F. Bloch, Z. Phys. 57, 545 (1929)
    J. P. Perdew and A. Zunger, Phys. Rev. B 23, 5048 (1981)
radial grids: 
    Treutler-Ahlrichs [JCP 102, 346 (1995); DOI:10.1063/1.469408] (M4) radial grids
    
becke partition: Becke, JCP 88, 2547 (1988); DOI:10.1063/1.454033
pruning grids: <function nwchem_prune at 0x150519413730>
grids dens level: 3
symmetrized grids: False
atomic radii adjust function: <function treutler_atomic_radii_adjust at 0x150519413620>
small_rho_cutoff = 1e-07
Set gradient conv threshold to 3.16228e-05
atom C rad-grids = 75, ang-grids = [ 50  50  50  50  50  50  50  50  50  50  50  50  50  50  50  50  50  50
  50  50  50  50  50  86  86  86  86  86  86  86  86  86  86 266 266 266
 266 266 266 266 302 302 302 302 302 302 302 302 302 302 302 302 302 302
 302 302 302 302 302 302 266 266 266 266 266 266 266 266 266 266 266 266
 266 266 266]
atom Cl rad-grids = 80, ang-grids = [ 50  50  50  50  50  50  50  50  50  50  50  50  50  50  50  50  50  50
  50  50  50  50  50  50  86  86  86  86  86  86  86  86  86  86  86  86
  86 350 350 350 350 350 350 350 350 350 434 434 434 434 434 434 434 434
 434 434 434 434 434 434 434 434 434 434 350 350 350 350 350 350 350 350
 350 350 350 350 350 350 350 350]
atom H rad-grids = 50, ang-grids = [ 50  50  50  50  50  50  50  50  50  50  50  50  50  50  86  86  86  86
 266 266 266 266 302 302 302 302 302 302 302 302 302 302 302 302 302 266
 266 266 266 266 266 266 266 266 266 266 266 266 266 266]
tot grids = 62854
Drop grids 5819
    CPU time for setting up grids     44.73 sec, wall time      0.37 sec
nelec by numeric integration = 13.999874274209239
    CPU time for vxc     34.23 sec, wall time      0.27 sec
Even tempered Gaussians are generated as DF auxbasis for  Cl H C
  ETB auxbasis for Cl  [[0, [24.721664, 1]], [0, [12.360832, 1]], [0, [6.180416, 1]], [0, [3.090208, 1]], [0, [1.545104, 1]], [0, [0.772552, 1]], [0, [0.386276, 1]], [0, [0.193138, 1]], [1, [20.012230625632515, 1]], [1, [10.006115312816258, 1]], [1, [5.003057656408129, 1]], [1, [2.5015288282040644, 1]], [1, [1.2507644141020322, 1]], [1, [0.6253822070510161, 1]], [1, [0.31269110352550805, 1]], [1, [0.15634555176275403, 1]], [2, [8.099968, 1]], [2, [4.049984, 1]], [2, [2.024992, 1]], [2, [1.012496, 1]], [2, [0.506248, 1]], [2, [0.253124, 1]], [2, [0.126562, 1]], [3, [4.236726694834115, 1]], [3, [2.1183633474170573, 1]], [3, [1.0591816737085287, 1]], [3, [0.5295908368542643, 1]], [3, [0.26479541842713217, 1]], [4, [4.43208, 1]], [4, [2.21604, 1]], [4, [1.10802, 1]], [4, [0.55401, 1]]]
  ETB auxbasis for H  [[0, [32.28416, 1]], [0, [16.14208, 1]], [0, [8.07104, 1]], [0, [4.03552, 1]], [0, [2.01776, 1]], [0, [1.00888, 1]], [0, [0.50444, 1]], [0, [0.25222, 1]], [0, [0.12611, 1]], [1, [8.571507550502421, 1]], [1, [4.2857537752512105, 1]], [1, [2.1428768876256052, 1]], [1, [1.0714384438128026, 1]], [1, [0.5357192219064013, 1]], [1, [0.26785961095320066, 1]], [2, [4.551504, 1]], [2, [2.275752, 1]], [2, [1.137876, 1]], [2, [0.568938, 1]]]
  ETB auxbasis for C  [[0, [13.144064, 1]], [0, [6.572032, 1]], [0, [3.286016, 1]], [0, [1.643008, 1]], [0, [0.821504, 1]], [0, [0.410752, 1]], [0, [0.205376, 1]], [0, [0.102688, 1]], [1, [19.852159834527225, 1]], [1, [9.926079917263612, 1]], [1, [4.963039958631806, 1]], [1, [2.481519979315903, 1]], [1, [1.2407599896579515, 1]], [1, [0.6203799948289758, 1]], [1, [0.3101899974144879, 1]], [1, [0.15509499870724394, 1]], [1, [0.07754749935362197, 1]], [2, [14.991872, 1]], [2, [7.495936, 1]], [2, [3.747968, 1]], [2, [1.873984, 1]], [2, [0.936992, 1]], [2, [0.468496, 1]], [2, [0.234248, 1]], [2, [0.117124, 1]], [2, [0.058562, 1]], [3, [5.36701994787573, 1]], [3, [2.683509973937865, 1]], [3, [1.3417549869689325, 1]], [3, [0.6708774934844662, 1]], [3, [0.3354387467422331, 1]], [3, [0.16771937337111656, 1]], [4, [3.842736, 1]], [4, [1.921368, 1]], [4, [0.960684, 1]], [4, [0.480342, 1]]]
num shells = 125, num cGTOs = 437
    CPU time for df-vj     37.86 sec, wall time      0.29 sec
E1 = -73.17535552638788  Ecoul = 36.75234004213101  Exc = -5.420235591073417
init E= -22.0342974154875
cond(S) = 58621.69013085953
    CPU time for initialize scf    316.71 sec, wall time      2.69 sec
  HOMO = -0.306994036469686  LUMO = -0.0650798077564975
  mo_energy =
[-8.45995813e-01 -6.91478369e-01 -4.76016045e-01 -4.76016001e-01
 -4.35214101e-01 -3.06994040e-01 -3.06994036e-01 -6.50798078e-02
 -1.10598000e-02  3.83359149e-02  3.83369506e-02  1.05492282e-01
  1.29608690e-01  1.29612074e-01  2.23711508e-01  2.23712344e-01
  2.29221831e-01  2.84558795e-01  2.95290126e-01  2.95293321e-01
  2.97743573e-01  2.97743578e-01  3.50528271e-01  3.50528528e-01
  3.61628132e-01  4.93679906e-01  5.75378815e-01  5.75381574e-01
  5.81049768e-01  6.40744531e-01  6.40746836e-01  6.65585177e-01
  6.88097043e-01  7.31515464e-01  7.31531233e-01  8.03657518e-01
  9.03282750e-01  9.03288807e-01  9.14812576e-01  9.24501318e-01
  9.24506409e-01  1.01805084e+00  1.01805358e+00  1.07878413e+00
  1.24377573e+00  1.25751724e+00  1.26571147e+00  1.26571188e+00
  1.29036042e+00  1.29036058e+00  1.29947094e+00  1.43924261e+00
  1.50180118e+00  1.50180415e+00  1.57367182e+00  1.57367211e+00
  1.60367701e+00  1.66627275e+00  1.67871544e+00  1.67871604e+00
  1.77885136e+00  1.77885835e+00  1.79315771e+00  1.87778598e+00
  1.87778712e+00  1.88781034e+00  2.01601638e+00  2.03867668e+00
  2.03867678e+00  2.10469752e+00  2.10470281e+00  2.17434233e+00
  2.19585279e+00  2.19585763e+00  2.31558005e+00  2.31558585e+00
  2.34979790e+00  2.50481145e+00  2.55226890e+00  2.55228510e+00
  2.60069905e+00  2.60071121e+00  2.75320414e+00  2.78854169e+00
  2.78854537e+00  2.80641054e+00  2.86942974e+00  2.99818264e+00
  3.00675670e+00  3.00675783e+00  3.01095377e+00  3.10596203e+00
  3.11052045e+00  3.11052094e+00  3.33512458e+00  3.33512535e+00
  3.42561629e+00  3.52741804e+00  3.52745341e+00  3.56084474e+00
  3.68340182e+00  3.68340378e+00  3.70785089e+00  3.71317697e+00
  3.74319293e+00  3.74319352e+00  3.86824367e+00  3.86824422e+00
  3.92013534e+00  3.93003900e+00  3.97310518e+00  4.17173312e+00
  4.17174073e+00  4.19467456e+00  4.34927558e+00  4.34927651e+00
  4.61077409e+00  4.61078595e+00  4.70592890e+00  4.70593014e+00
  4.78556167e+00  5.01286982e+00  5.13705428e+00  5.14230665e+00
  5.14231021e+00  5.25678377e+00  5.25678438e+00  5.47366925e+00
  5.53651749e+00  5.53651959e+00  5.70946019e+00  5.70946021e+00
  5.81062021e+00  5.81062181e+00  5.85389509e+00  5.92640212e+00
  6.03810101e+00  6.05706924e+00  6.05706931e+00  6.10504681e+00
  6.10504947e+00  6.20363009e+00  6.20363114e+00  6.22682471e+00
  6.34296758e+00  6.50154650e+00  6.50155094e+00  6.56470029e+00
  6.85577988e+00  6.85578066e+00  7.06091414e+00  7.09205816e+00
  7.21218325e+00  7.21219082e+00  7.32632729e+00  7.37619101e+00
  7.37619795e+00  7.48702091e+00  7.57182010e+00  7.57182756e+00
  7.59411765e+00  7.59413864e+00  7.60671840e+00  7.70411486e+00
  7.84420940e+00  7.84421382e+00  8.13485664e+00  8.13486850e+00
  8.15720064e+00  8.18888179e+00  8.18888233e+00  8.22960877e+00
  8.22961898e+00  8.27412185e+00  8.31201405e+00  8.69743317e+00
  8.81903086e+00  8.81903391e+00  8.88198842e+00  9.12450014e+00
  9.12450485e+00  9.81543625e+00  9.89143667e+00  9.89144576e+00
  9.96761224e+00  1.00452229e+01  1.00452260e+01  1.01204582e+01
  1.01204596e+01  1.02894340e+01  1.03595341e+01  1.10551263e+01
  1.10551271e+01  1.16158664e+01  1.22735354e+01  1.22735394e+01
  1.74326932e+01  2.00451489e+01]
nelec by numeric integration = 14.000001562933056
    CPU time for vxc     37.45 sec, wall time      0.30 sec
    CPU time for df-vj      7.06 sec, wall time      0.06 sec
E1 = -74.87350697226802  Ecoul = 38.499524820962435  Exc = -5.70618255177633
cycle= 1 E= -22.2712110432392  delta_E= -0.237  |g|= 0.423  |ddm|= 4.41
    CPU time for cycle= 1     60.85 sec, wall time      0.51 sec
  HOMO = -0.227416108986363  LUMO = 0.0202808546288747
  mo_energy =
[-7.43403486e-01 -5.38387209e-01 -3.30686187e-01 -3.30685986e-01
 -3.26089816e-01 -2.27416240e-01 -2.27416109e-01  2.02808546e-02
  5.62141403e-02  9.15131212e-02  9.15140122e-02  1.62950691e-01
  1.77535923e-01  1.77538536e-01  2.71171384e-01  2.86573853e-01
  2.86574473e-01  3.47359213e-01  3.47359728e-01  3.52892700e-01
  3.82408117e-01  3.82409753e-01  4.02053027e-01  4.02053046e-01
  4.13805374e-01  5.58270046e-01  6.19649292e-01  6.22783235e-01
  6.22785614e-01  7.12189049e-01  7.12190525e-01  7.23012168e-01
  7.65408085e-01  7.86900397e-01  7.86912736e-01  8.50770970e-01
  9.49019332e-01  9.49024928e-01  9.84944480e-01  9.92036854e-01
  9.92042061e-01  1.10472999e+00  1.10473187e+00  1.15202125e+00
  1.30225646e+00  1.32247064e+00  1.32804738e+00  1.32804785e+00
  1.35382860e+00  1.35382861e+00  1.36015146e+00  1.51698313e+00
  1.56609312e+00  1.56609577e+00  1.66219188e+00  1.66219274e+00
  1.69136570e+00  1.77346611e+00  1.78837180e+00  1.78837305e+00
  1.88460327e+00  1.88460809e+00  1.90345131e+00  1.99866505e+00
  1.99866612e+00  2.00820651e+00  2.07717635e+00  2.12243149e+00
  2.12243156e+00  2.17876927e+00  2.17877507e+00  2.27304630e+00
  2.27305104e+00  2.27446621e+00  2.38068268e+00  2.38068633e+00
  2.42058196e+00  2.59095071e+00  2.60968306e+00  2.60969706e+00
  2.66866352e+00  2.66867484e+00  2.81573285e+00  2.87026165e+00
  2.87412393e+00  2.87412623e+00  2.93613186e+00  3.09154297e+00
  3.09154413e+00  3.09357965e+00  3.09461454e+00  3.21542091e+00
  3.21542136e+00  3.22160535e+00  3.44958953e+00  3.44959082e+00
  3.52090575e+00  3.59926887e+00  3.59930498e+00  3.64185601e+00
  3.78606803e+00  3.78850759e+00  3.78850934e+00  3.80169971e+00
  3.85171032e+00  3.85171093e+00  3.96417273e+00  3.96417312e+00
  3.99486169e+00  4.01267521e+00  4.06787287e+00  4.23969735e+00
  4.23970403e+00  4.28222973e+00  4.43691335e+00  4.43691395e+00
  4.68544383e+00  4.68545611e+00  4.78110454e+00  4.78110574e+00
  4.90588577e+00  5.19593266e+00  5.32439742e+00  5.32440039e+00
  5.34103226e+00  5.43092945e+00  5.43093020e+00  5.66525515e+00
  5.72391317e+00  5.72391683e+00  5.87520538e+00  5.87520604e+00
  5.93418887e+00  5.93419120e+00  5.95029922e+00  6.08680265e+00
  6.15885031e+00  6.20818891e+00  6.20819091e+00  6.21484705e+00
  6.21484730e+00  6.37203663e+00  6.37203773e+00  6.40575181e+00
  6.55392429e+00  6.66566996e+00  6.66567484e+00  6.70844407e+00
  7.07082731e+00  7.07082931e+00  7.17044221e+00  7.24947343e+00
  7.32801884e+00  7.32802481e+00  7.43213176e+00  7.48318329e+00
  7.48318987e+00  7.62429299e+00  7.66052858e+00  7.66053220e+00
  7.68280202e+00  7.68896528e+00  7.68898382e+00  7.79198184e+00
  7.92557408e+00  7.92557693e+00  8.23717415e+00  8.23719345e+00
  8.29200850e+00  8.30771831e+00  8.30771947e+00  8.37250515e+00
  8.40599361e+00  8.40599509e+00  8.44049973e+00  8.82230914e+00
  8.92846315e+00  8.92846498e+00  8.98848370e+00  9.25907267e+00
  9.25907646e+00  9.95976447e+00  1.00181090e+01  1.00181190e+01
  1.01202689e+01  1.02169606e+01  1.02169629e+01  1.02834392e+01
  1.02834414e+01  1.04649268e+01  1.05369055e+01  1.11319969e+01
  1.11319975e+01  1.16898342e+01  1.24656818e+01  1.24656864e+01
  1.75140864e+01  2.03994696e+01]
nelec by numeric integration = 14.000000491541723
    CPU time for vxc     40.77 sec, wall time      0.34 sec
    CPU time for df-vj     11.56 sec, wall time      0.09 sec
E1 = -73.02622245076854  Ecoul = 36.43902015354723  Exc = -5.428423905058641
cycle= 2 E= -22.2066725424372  delta_E= 0.0645  |g|= 0.624  |ddm|= 1.87
    CPU time for cycle= 2    147.62 sec, wall time      1.19 sec
  HOMO = -0.250307546306821  LUMO = -0.0180304737348466
  mo_energy =
[-7.88620666e-01 -6.16690471e-01 -4.09389613e-01 -4.09389471e-01
 -3.76273977e-01 -2.50307587e-01 -2.50307546e-01 -1.80304737e-02
  1.53929789e-02  5.90248627e-02  5.90256876e-02  1.28870489e-01
  1.50805729e-01  1.50808343e-01  2.59485674e-01  2.59637189e-01
  2.59638042e-01  3.10515393e-01  3.25642280e-01  3.25644575e-01
  3.41795056e-01  3.41795542e-01  3.83994676e-01  3.83994943e-01
  3.85515449e-01  5.33834223e-01  5.92284877e-01  6.04815485e-01
  6.04817628e-01  6.70368695e-01  6.70370306e-01  6.89659482e-01
  7.18594571e-01  7.55292082e-01  7.55304777e-01  8.34228656e-01
  9.19002214e-01  9.19007697e-01  9.41114339e-01  9.54250512e-01
  9.54255376e-01  1.05362607e+00  1.05362845e+00  1.11134818e+00
  1.29098746e+00  1.29991140e+00  1.30945658e+00  1.30945672e+00
  1.33725809e+00  1.33725843e+00  1.34329831e+00  1.48589545e+00
  1.54597638e+00  1.54597881e+00  1.61958499e+00  1.61958544e+00
  1.63744041e+00  1.71447952e+00  1.72360856e+00  1.72360958e+00
  1.82134421e+00  1.82134961e+00  1.83629130e+00  1.92908568e+00
  1.92908666e+00  1.93822260e+00  2.03700169e+00  2.08614762e+00
  2.08614765e+00  2.13296554e+00  2.13297085e+00  2.21603630e+00
  2.22721806e+00  2.22722283e+00  2.34019139e+00  2.34019585e+00
  2.37683718e+00  2.53968010e+00  2.57741245e+00  2.57742709e+00
  2.62760760e+00  2.62761878e+00  2.77451477e+00  2.83124301e+00
  2.83515420e+00  2.83515704e+00  2.92047329e+00  3.04045861e+00
  3.04045938e+00  3.04417035e+00  3.04894237e+00  3.15036426e+00
  3.15036490e+00  3.15604612e+00  3.38391638e+00  3.38391744e+00
  3.46864830e+00  3.58945736e+00  3.58949324e+00  3.61076007e+00
  3.73439662e+00  3.73439828e+00  3.75976148e+00  3.76282354e+00
  3.79245423e+00  3.79245473e+00  3.92042425e+00  3.92042476e+00
  3.98620407e+00  3.99077906e+00  4.03184903e+00  4.22811230e+00
  4.22811878e+00  4.25498363e+00  4.40671596e+00  4.40671662e+00
  4.67522702e+00  4.67523936e+00  4.76621201e+00  4.76621314e+00
  4.84825802e+00  5.08484832e+00  5.21922683e+00  5.21923012e+00
  5.21924983e+00  5.32317156e+00  5.32317223e+00  5.55036903e+00
  5.61302535e+00  5.61302792e+00  5.77801353e+00  5.77801389e+00
  5.85817449e+00  5.85817476e+00  5.89419152e+00  5.99128599e+00
  6.08806024e+00  6.12138380e+00  6.12138407e+00  6.14324425e+00
  6.14324715e+00  6.26968734e+00  6.26968835e+00  6.30060745e+00
  6.42534251e+00  6.56868562e+00  6.56869033e+00  6.62138713e+00
  6.94259046e+00  6.94259173e+00  7.10054651e+00  7.15682462e+00
  7.25940184e+00  7.25940875e+00  7.36896308e+00  7.41965953e+00
  7.41966671e+00  7.54281671e+00  7.60524279e+00  7.60524861e+00
  7.62964843e+00  7.62966905e+00  7.63744507e+00  7.73838412e+00
  7.87569544e+00  7.87569872e+00  8.18040100e+00  8.18041763e+00
  8.21591068e+00  8.24352696e+00  8.24352838e+00  8.29415683e+00
  8.29416214e+00  8.31403656e+00  8.35854526e+00  8.75032862e+00
  8.86617454e+00  8.86617662e+00  8.92822424e+00  9.18001140e+00
  9.18001505e+00  9.87516309e+00  9.94366227e+00  9.94367257e+00
  1.00324009e+01  1.01193213e+01  1.01193241e+01  1.01870098e+01
  1.01870117e+01  1.03656139e+01  1.04348623e+01  1.11222617e+01
  1.11222623e+01  1.16811424e+01  1.23553576e+01  1.23553619e+01
  1.75030505e+01  2.01871701e+01]
nelec by numeric integration = 14.000001366699893
    CPU time for vxc     35.18 sec, wall time      0.28 sec
    CPU time for df-vj      7.43 sec, wall time      0.06 sec
E1 = -74.157740011742  Ecoul = 37.599113614700826  Exc = -5.565424902811001
cycle= 3 E= -22.3150976400094  delta_E= -0.108  |g|= 0.0816  |ddm|= 1.04
    CPU time for cycle= 3    113.33 sec, wall time      0.94 sec
  HOMO = -0.259767390473904  LUMO = -0.0201993524402342
  mo_energy =
[-7.91969876e-01 -6.19094059e-01 -4.05404876e-01 -4.05404725e-01
 -3.82321999e-01 -2.59767428e-01 -2.59767390e-01 -2.01993524e-02
  1.61209673e-02  6.14834381e-02  6.14842723e-02  1.28338894e-01
  1.52666605e-01  1.52669280e-01  2.54496225e-01  2.56896338e-01
  2.56897121e-01  3.12244900e-01  3.25359702e-01  3.25361390e-01
  3.37734194e-01  3.37735181e-01  3.79198960e-01  3.79199247e-01
  3.86265108e-01  5.28157865e-01  5.96175136e-01  6.00843848e-01
  6.00846172e-01  6.72819260e-01  6.72820859e-01  6.91765885e-01
  7.19305578e-01  7.56174864e-01  7.56187650e-01  8.29245186e-01
  9.21424855e-01  9.21430312e-01  9.43624363e-01  9.55093698e-01
  9.55098627e-01  1.05672159e+00  1.05672388e+00  1.11403364e+00
  1.28381794e+00  1.29432614e+00  1.30260246e+00  1.30260269e+00
  1.32839830e+00  1.32839849e+00  1.33699278e+00  1.47852268e+00
  1.53875969e+00  1.53876223e+00  1.61706995e+00  1.61707055e+00
  1.64228889e+00  1.71440247e+00  1.72732572e+00  1.72732673e+00
  1.82409292e+00  1.82409828e+00  1.83968742e+00  1.93129644e+00
  1.93129743e+00  1.93978396e+00  2.04177146e+00  2.08176841e+00
  2.08176843e+00  2.13613791e+00  2.13614322e+00  2.21812654e+00
  2.22989990e+00  2.22990470e+00  2.34397421e+00  2.34397871e+00
  2.37993491e+00  2.54169265e+00  2.57856129e+00  2.57857587e+00
  2.63056271e+00  2.63057384e+00  2.77908719e+00  2.83107395e+00
  2.83107682e+00  2.83389255e+00  2.90952919e+00  3.04296145e+00
  3.04437239e+00  3.04437321e+00  3.05076561e+00  3.15416146e+00
  3.15416216e+00  3.15642374e+00  3.38659265e+00  3.38659376e+00
  3.46936520e+00  3.57797992e+00  3.57801562e+00  3.60453251e+00
  3.73425352e+00  3.73425517e+00  3.75533974e+00  3.75629583e+00
  3.79215917e+00  3.79215967e+00  3.91625497e+00  3.91625542e+00
  3.97078695e+00  3.98051693e+00  4.02313263e+00  4.21375711e+00
  4.21376392e+00  4.24124527e+00  4.39530012e+00  4.39530078e+00
  4.65905062e+00  4.65906290e+00  4.75137692e+00  4.75137809e+00
  4.84194026e+00  5.09095322e+00  5.22252582e+00  5.22252911e+00
  5.22337306e+00  5.32886982e+00  5.32887049e+00  5.55604244e+00
  5.61768643e+00  5.61768897e+00  5.78277404e+00  5.78277438e+00
  5.86298999e+00  5.86299024e+00  5.89958461e+00  5.99601441e+00
  6.09237977e+00  6.12530998e+00  6.12531020e+00  6.14873317e+00
  6.14873615e+00  6.27495898e+00  6.27496002e+00  6.30452260e+00
  6.42899820e+00  6.57321171e+00  6.57321643e+00  6.62630083e+00
  6.94722129e+00  6.94722254e+00  7.10699824e+00  7.16090288e+00
  7.26467424e+00  7.26468118e+00  7.37406697e+00  7.42508866e+00
  7.42509591e+00  7.54752955e+00  7.61041784e+00  7.61042376e+00
  7.63517688e+00  7.63519752e+00  7.64320054e+00  7.74341552e+00
  7.88096761e+00  7.88097080e+00  8.18602142e+00  8.18603801e+00
  8.22108726e+00  8.24910444e+00  8.24910591e+00  8.29897167e+00
  8.29897710e+00  8.31995994e+00  8.36360365e+00  8.75590435e+00
  8.87189113e+00  8.87189326e+00  8.93401223e+00  9.18572867e+00
  9.18573235e+00  9.88070107e+00  9.94941478e+00  9.94942510e+00
  1.00373675e+01  1.01242032e+01  1.01242060e+01  1.01924304e+01
  1.01924323e+01  1.03704510e+01  1.04397217e+01  1.11031664e+01
  1.11031671e+01  1.16612344e+01  1.23598401e+01  1.23598445e+01
  1.74834402e+01  2.01887546e+01]
nelec by numeric integration = 14.000001251183743
    CPU time for vxc     37.69 sec, wall time      0.30 sec
    CPU time for df-vj      6.03 sec, wall time      0.05 sec
E1 = -74.15453431331896  Ecoul = 37.60309901571051  Exc = -5.574673275497456
cycle= 4 E= -22.3171549132631  delta_E= -0.00206  |g|= 0.0157  |ddm|= 0.177
    CPU time for cycle= 4    110.23 sec, wall time      0.87 sec
  HOMO = -0.257875030280506  LUMO = -0.0192896332655506
  mo_energy =
[-7.90187837e-01 -6.18631781e-01 -4.05945416e-01 -4.05945257e-01
 -3.80207118e-01 -2.57875064e-01 -2.57875030e-01 -1.92896333e-02
  1.58827292e-02  6.09027295e-02  6.09035523e-02  1.28665943e-01
  1.52396460e-01  1.52399126e-01  2.55588452e-01  2.57913060e-01
  2.57913854e-01  3.11643571e-01  3.25636067e-01  3.25637907e-01
  3.38347800e-01  3.38348628e-01  3.80088753e-01  3.80089044e-01
  3.86465424e-01  5.29625561e-01  5.95277797e-01  6.01672840e-01
  6.01675130e-01  6.72489261e-01  6.72490899e-01  6.91535266e-01
  7.19351426e-01  7.56030751e-01  7.56043533e-01  8.30338595e-01
  9.20832825e-01  9.20838293e-01  9.42873090e-01  9.55143943e-01
  9.55148897e-01  1.05614184e+00  1.05614416e+00  1.11347885e+00
  1.28518672e+00  1.29605530e+00  1.30447538e+00  1.30447558e+00
  1.33040543e+00  1.33040560e+00  1.33837423e+00  1.48043251e+00
  1.54053129e+00  1.54053377e+00  1.61793913e+00  1.61793973e+00
  1.64179909e+00  1.71490789e+00  1.72673287e+00  1.72673391e+00
  1.82414156e+00  1.82414694e+00  1.83965896e+00  1.93110270e+00
  1.93110368e+00  1.93972041e+00  2.04084188e+00  2.08284055e+00
  2.08284057e+00  2.13573130e+00  2.13573663e+00  2.21804131e+00
  2.22930225e+00  2.22930704e+00  2.34329276e+00  2.34329726e+00
  2.37920542e+00  2.54174449e+00  2.57850156e+00  2.57851616e+00
  2.63023057e+00  2.63024177e+00  2.77808788e+00  2.83211880e+00
  2.83212167e+00  2.83360434e+00  2.91188446e+00  3.04334200e+00
  3.04369261e+00  3.04369339e+00  3.05086924e+00  3.15341292e+00
  3.15341361e+00  3.15689462e+00  3.38631864e+00  3.38631974e+00
  3.46957686e+00  3.57996176e+00  3.57999739e+00  3.60618611e+00
  3.73493369e+00  3.73493532e+00  3.75645055e+00  3.75791065e+00
  3.79274436e+00  3.79274485e+00  3.91770236e+00  3.91770282e+00
  3.97360232e+00  3.98282859e+00  4.02501791e+00  4.21700579e+00
  4.21701242e+00  4.24453263e+00  4.39824861e+00  4.39824926e+00
  4.66226219e+00  4.66227435e+00  4.75477327e+00  4.75477442e+00
  4.84401154e+00  5.09039449e+00  5.22202343e+00  5.22202672e+00
  5.22293609e+00  5.32862903e+00  5.32862973e+00  5.55546982e+00
  5.61700224e+00  5.61700476e+00  5.78184787e+00  5.78184821e+00
  5.86235621e+00  5.86235649e+00  5.89855884e+00  5.99509098e+00
  6.09186069e+00  6.12527033e+00  6.12527054e+00  6.14786800e+00
  6.14787100e+00  6.27405123e+00  6.27405229e+00  6.30385907e+00
  6.42859769e+00  6.57250865e+00  6.57251333e+00  6.62565222e+00
  6.94624374e+00  6.94624504e+00  7.10623280e+00  7.16031389e+00
  7.26353317e+00  7.26354009e+00  7.37297426e+00  7.42397124e+00
  7.42397851e+00  7.54685762e+00  7.60915653e+00  7.60916247e+00
  7.63392220e+00  7.63394284e+00  7.64193036e+00  7.74235266e+00
  7.87975005e+00  7.87975327e+00  8.18486638e+00  8.18488298e+00
  8.22007507e+00  8.24808615e+00  8.24808764e+00  8.29782306e+00
  8.29782849e+00  8.31883987e+00  8.36256466e+00  8.75486569e+00
  8.87077014e+00  8.87077227e+00  8.93287408e+00  9.18472829e+00
  9.18473201e+00  9.87967429e+00  9.94833136e+00  9.94834167e+00
  1.00360674e+01  1.01230356e+01  1.01230384e+01  1.01913619e+01
  1.01913637e+01  1.03692699e+01  1.04385957e+01  1.11072277e+01
  1.11072284e+01  1.16659539e+01  1.23584791e+01  1.23584835e+01
  1.74877813e+01  2.01870357e+01]
nelec by numeric integration = 14.000001269592365
    CPU time for vxc     38.93 sec, wall time      0.31 sec
    CPU time for df-vj      9.45 sec, wall time      0.08 sec
E1 = -74.1488570997844  Ecoul = 37.59517438748007  Exc = -5.572504112258752
cycle= 5 E= -22.3172331647203  delta_E= -7.83e-05  |g|= 0.00265  |ddm|= 0.0394
    CPU time for cycle= 5    107.83 sec, wall time      0.85 sec
  HOMO = -0.258391184473814  LUMO = -0.019568522853725
  mo_energy =
[-7.90786930e-01 -6.18754128e-01 -4.06004785e-01 -4.06004622e-01
 -3.80646103e-01 -2.58391220e-01 -2.58391184e-01 -1.95685229e-02
  1.58208256e-02  6.08688896e-02  6.08697154e-02  1.28532271e-01
  1.52352367e-01  1.52355033e-01  2.55406513e-01  2.57624552e-01
  2.57625339e-01  3.11689387e-01  3.25438739e-01  3.25440543e-01
  3.38082052e-01  3.38082912e-01  3.79788894e-01  3.79789183e-01
  3.86261319e-01  5.29286649e-01  5.95303768e-01  6.01474677e-01
  6.01476972e-01  6.72433928e-01  6.72435567e-01  6.91521678e-01
  7.19284922e-01  7.55963170e-01  7.55975951e-01  8.30065436e-01
  9.20804427e-01  9.20809889e-01  9.42894408e-01  9.55010310e-01
  9.55015268e-01  1.05612490e+00  1.05612722e+00  1.11349526e+00
  1.28475885e+00  1.29557991e+00  1.30395927e+00  1.30395948e+00
  1.32984533e+00  1.32984549e+00  1.33796898e+00  1.48006961e+00
  1.54009195e+00  1.54009444e+00  1.61766761e+00  1.61766821e+00
  1.64176545e+00  1.71473499e+00  1.72679791e+00  1.72679896e+00
  1.82401453e+00  1.82401989e+00  1.83953297e+00  1.93106284e+00
  1.93106382e+00  1.93963738e+00  2.04097505e+00  2.08254660e+00
  2.08254662e+00  2.13570637e+00  2.13571170e+00  2.21798318e+00
  2.22927961e+00  2.22928440e+00  2.34327352e+00  2.34327801e+00
  2.37926649e+00  2.54159365e+00  2.57836635e+00  2.57838096e+00
  2.63017961e+00  2.63019080e+00  2.77813921e+00  2.83185753e+00
  2.83186040e+00  2.83356525e+00  2.91143281e+00  3.04321855e+00
  3.04370514e+00  3.04370593e+00  3.05072169e+00  3.15342132e+00
  3.15342201e+00  3.15663198e+00  3.38624730e+00  3.38624842e+00
  3.46936569e+00  3.57937067e+00  3.57940628e+00  3.60571773e+00
  3.73459450e+00  3.73459614e+00  3.75602051e+00  3.75739164e+00
  3.79242452e+00  3.79242501e+00  3.91716724e+00  3.91716771e+00
  3.97289752e+00  3.98220079e+00  4.02444421e+00  4.21637815e+00
  4.21638478e+00  4.24393968e+00  4.39763656e+00  4.39763723e+00
  4.66145299e+00  4.66146513e+00  4.75404110e+00  4.75404226e+00
  4.84346907e+00  5.09030624e+00  5.22201763e+00  5.22202092e+00
  5.22283380e+00  5.32850644e+00  5.32850714e+00  5.55536973e+00
  5.61700335e+00  5.61700586e+00  5.78185923e+00  5.78185958e+00
  5.86237861e+00  5.86237888e+00  5.89875076e+00  5.99519239e+00
  6.09184112e+00  6.12513913e+00  6.12513934e+00  6.14795438e+00
  6.14795739e+00  6.27403482e+00  6.27403589e+00  6.30390477e+00
  6.42844173e+00  6.57249080e+00  6.57249547e+00  6.62567845e+00
  6.94615398e+00  6.94615528e+00  7.10622052e+00  7.16027756e+00
  7.26367139e+00  7.26367830e+00  7.37304353e+00  7.42406467e+00
  7.42407194e+00  7.54683773e+00  7.60926010e+00  7.60926604e+00
  7.63401116e+00  7.63403180e+00  7.64206118e+00  7.74243085e+00
  7.87986211e+00  7.87986533e+00  8.18499036e+00  8.18500695e+00
  8.22012132e+00  8.24820618e+00  8.24820767e+00  8.29787075e+00
  8.29787620e+00  8.31894959e+00  8.36263219e+00  8.75494170e+00
  8.87090964e+00  8.87091176e+00  8.93300918e+00  9.18478178e+00
  9.18478549e+00  9.87970521e+00  9.94843437e+00  9.94844466e+00
  1.00361664e+01  1.01231024e+01  1.01231052e+01  1.01914243e+01
  1.01914262e+01  1.03693426e+01  1.04386603e+01  1.11062706e+01
  1.11062713e+01  1.16649790e+01  1.23585247e+01  1.23585291e+01
  1.74867503e+01  2.01868502e+01]
nelec by numeric integration = 14.000001265413626
    CPU time for vxc     38.83 sec, wall time      0.31 sec
    CPU time for df-vj      8.01 sec, wall time      0.06 sec
E1 = -74.15299325124516  Ecoul = 37.60000454278591  Exc = -5.573200191962482
cycle= 6 E= -22.317235240579  delta_E= -2.08e-06  |g|= 0.000622  |ddm|= 0.00849
    CPU time for cycle= 6     98.83 sec, wall time      0.81 sec
  HOMO = -0.258309333718091  LUMO = -0.0195522103896093
  mo_energy =
[-7.90679500e-01 -6.18743353e-01 -4.05986917e-01 -4.05986753e-01
 -3.80618255e-01 -2.58309374e-01 -2.58309334e-01 -1.95522104e-02
  1.58280783e-02  6.08617444e-02  6.08625696e-02  1.28538435e-01
  1.52359391e-01  1.52362057e-01  2.55394755e-01  2.57659104e-01
  2.57659896e-01  3.11678956e-01  3.25470788e-01  3.25472598e-01
  3.38116262e-01  3.38117114e-01  3.79831387e-01  3.79831678e-01
  3.86295464e-01  5.29309247e-01  5.95290126e-01  6.01483565e-01
  6.01485865e-01  6.72441191e-01  6.72442831e-01  6.91533327e-01
  7.19281022e-01  7.55969720e-01  7.55982498e-01  8.30083440e-01
  9.20796283e-01  9.20801745e-01  9.42885643e-01  9.55019759e-01
  9.55024716e-01  1.05612394e+00  1.05612626e+00  1.11349268e+00
  1.28483076e+00  1.29564758e+00  1.30403518e+00  1.30403538e+00
  1.32993342e+00  1.32993358e+00  1.33802595e+00  1.48007644e+00
  1.54014857e+00  1.54015106e+00  1.61769182e+00  1.61769242e+00
  1.64177660e+00  1.71475272e+00  1.72680075e+00  1.72680179e+00
  1.82403693e+00  1.82404229e+00  1.83956152e+00  1.93106933e+00
  1.93107031e+00  1.93965872e+00  2.04096467e+00  2.08258691e+00
  2.08258693e+00  2.13571653e+00  2.13572186e+00  2.21800266e+00
  2.22928140e+00  2.22928620e+00  2.34327112e+00  2.34327561e+00
  2.37925666e+00  2.54161711e+00  2.57839139e+00  2.57840599e+00
  2.63018510e+00  2.63019629e+00  2.77812537e+00  2.83188641e+00
  2.83188928e+00  2.83356562e+00  2.91146693e+00  3.04321650e+00
  3.04370304e+00  3.04370382e+00  3.05074951e+00  3.15341829e+00
  3.15341898e+00  3.15666995e+00  3.38625856e+00  3.38625968e+00
  3.46939930e+00  3.57948046e+00  3.57951607e+00  3.60578873e+00
  3.73465736e+00  3.73465899e+00  3.75609651e+00  3.75748742e+00
  3.79248250e+00  3.79248298e+00  3.91727046e+00  3.91727093e+00
  3.97301072e+00  3.98230212e+00  4.02454498e+00  4.21642887e+00
  4.21643546e+00  4.24396109e+00  4.39768810e+00  4.39768876e+00
  4.66159325e+00  4.66160538e+00  4.75413643e+00  4.75413758e+00
  4.84355049e+00  5.09031852e+00  5.22202382e+00  5.22202711e+00
  5.22284547e+00  5.32852761e+00  5.32852832e+00  5.55538265e+00
  5.61700949e+00  5.61701200e+00  5.78185926e+00  5.78185961e+00
  5.86238305e+00  5.86238332e+00  5.89874050e+00  5.99518847e+00
  6.09185058e+00  6.12516611e+00  6.12516633e+00  6.14795320e+00
  6.14795621e+00  6.27403502e+00  6.27403610e+00  6.30390698e+00
  6.42846306e+00  6.57249815e+00  6.57250282e+00  6.62568391e+00
  6.94615669e+00  6.94615798e+00  7.10622507e+00  7.16029442e+00
  7.26365981e+00  7.26366672e+00  7.37303670e+00  7.42405704e+00
  7.42406431e+00  7.54684697e+00  7.60924680e+00  7.60925274e+00
  7.63399940e+00  7.63402004e+00  7.64204852e+00  7.74242276e+00
  7.87984879e+00  7.87985201e+00  8.18498171e+00  8.18499830e+00
  8.22011817e+00  8.24820243e+00  8.24820392e+00  8.29786568e+00
  8.29787113e+00  8.31894216e+00  8.36262776e+00  8.75493783e+00
  8.87089998e+00  8.87090210e+00  8.93299882e+00  9.18477871e+00
  9.18478242e+00  9.87970394e+00  9.94842688e+00  9.94843717e+00
  1.00361550e+01  1.01230949e+01  1.01230977e+01  1.01914194e+01
  1.01914213e+01  1.03693340e+01  1.04386544e+01  1.11064357e+01
  1.11064364e+01  1.16651070e+01  1.23585142e+01  1.23585186e+01
  1.74869368e+01  2.01868476e+01]
nelec by numeric integration = 14.000001265848251
    CPU time for vxc     44.34 sec, wall time      0.35 sec
    CPU time for df-vj      7.93 sec, wall time      0.06 sec
E1 = -74.15184021510137  Ecoul = 37.5987011028593  Exc = -5.573049815398157
cycle= 7 E= -22.3172352677975  delta_E= -2.72e-08  |g|= 0.000167  |ddm|= 0.00179
    CPU time for cycle= 7    107.91 sec, wall time      0.92 sec
  HOMO = -0.258340267079372  LUMO = -0.0195687612793585
  mo_energy =
[-7.90716962e-01 -6.18762485e-01 -4.06001969e-01 -4.06001805e-01
 -3.80643183e-01 -2.58340304e-01 -2.58340267e-01 -1.95687613e-02
  1.58151816e-02  6.08528862e-02  6.08537116e-02  1.28526066e-01
  1.52349329e-01  1.52351992e-01  2.55384927e-01  2.57639883e-01
  2.57640675e-01  3.11670403e-01  3.25455979e-01  3.25457787e-01
  3.38097897e-01  3.38098747e-01  3.79811959e-01  3.79812252e-01
  3.86276864e-01  5.29292490e-01  5.95280328e-01  6.01467615e-01
  6.01469913e-01  6.72430869e-01  6.72432508e-01  6.91518990e-01
  7.19269246e-01  7.55956661e-01  7.55969436e-01  8.30067138e-01
  9.20784636e-01  9.20790098e-01  9.42873850e-01  9.55005591e-01
  9.55010547e-01  1.05611203e+00  1.05611435e+00  1.11348073e+00
  1.28480831e+00  1.29562059e+00  1.30400615e+00  1.30400635e+00
  1.32990059e+00  1.32990074e+00  1.33800363e+00  1.48006078e+00
  1.54012322e+00  1.54012569e+00  1.61767422e+00  1.61767482e+00
  1.64176540e+00  1.71473723e+00  1.72678733e+00  1.72678838e+00
  1.82402079e+00  1.82402616e+00  1.83954508e+00  1.93105579e+00
  1.93105676e+00  1.93963951e+00  2.04095277e+00  2.08256603e+00
  2.08256605e+00  2.13570184e+00  2.13570716e+00  2.21798256e+00
  2.22926841e+00  2.22927321e+00  2.34325931e+00  2.34326380e+00
  2.37924384e+00  2.54159818e+00  2.57837185e+00  2.57838645e+00
  2.63017075e+00  2.63018194e+00  2.77811437e+00  2.83186456e+00
  2.83186743e+00  2.83355143e+00  2.91144160e+00  3.04320165e+00
  3.04369002e+00  3.04369080e+00  3.05073206e+00  3.15340525e+00
  3.15340594e+00  3.15664664e+00  3.38624215e+00  3.38624327e+00
  3.46937749e+00  3.57944674e+00  3.57948235e+00  3.60575761e+00
  3.73463034e+00  3.73463197e+00  3.75606648e+00  3.75745417e+00
  3.79245534e+00  3.79245583e+00  3.91723316e+00  3.91723363e+00
  3.97297085e+00  3.98226414e+00  4.02450675e+00  4.21639872e+00
  4.21640527e+00  4.24393525e+00  4.39765662e+00  4.39765728e+00
  4.66154447e+00  4.66155659e+00  4.75409500e+00  4.75409615e+00
  4.84351291e+00  5.09030792e+00  5.22200889e+00  5.22201218e+00
  5.22283182e+00  5.32851234e+00  5.32851304e+00  5.55537162e+00
  5.61699398e+00  5.61699649e+00  5.78184734e+00  5.78184768e+00
  5.86236968e+00  5.86236995e+00  5.89872776e+00  5.99517487e+00
  6.09183492e+00  6.12514718e+00  6.12514740e+00  6.14794102e+00
  6.14794403e+00  6.27402358e+00  6.27402465e+00  6.30389039e+00
  6.42844422e+00  6.57248382e+00  6.57248849e+00  6.62566837e+00
  6.94614576e+00  6.94614706e+00  7.10621328e+00  7.16027533e+00
  7.26364739e+00  7.26365430e+00  7.37302517e+00  7.42404543e+00
  7.42405270e+00  7.54683111e+00  7.60923563e+00  7.60924157e+00
  7.63398933e+00  7.63400997e+00  7.64203830e+00  7.74241068e+00
  7.87983769e+00  7.87984091e+00  8.18497083e+00  8.18498741e+00
  8.22010627e+00  8.24818963e+00  8.24819112e+00  8.29785430e+00
  8.29785975e+00  8.31893179e+00  8.36261498e+00  8.75492547e+00
  8.87088737e+00  8.87088949e+00  8.93298706e+00  9.18476750e+00
  9.18477121e+00  9.87969219e+00  9.94841472e+00  9.94842502e+00
  1.00361432e+01  1.01230830e+01  1.01230858e+01  1.01914073e+01
  1.01914091e+01  1.03693218e+01  1.04386429e+01  1.11063763e+01
  1.11063770e+01  1.16650518e+01  1.23585037e+01  1.23585081e+01
  1.74868713e+01  2.01868415e+01]
nelec by numeric integration = 14.00000126573269
    CPU time for vxc     39.49 sec, wall time      0.32 sec
    CPU time for df-vj      8.50 sec, wall time      0.07 sec
E1 = -74.15211286619808  Ecoul = 37.59901980064021  Exc = -5.573095869732469
cycle= 8 E= -22.3172352754476  delta_E= -7.65e-09  |g|= 1.09e-05  |ddm|= 0.000583
    CPU time for cycle= 8    120.93 sec, wall time      1.06 sec
  HOMO = -0.258339914999954  LUMO = -0.019567813742358
  mo_energy =
[-7.90715460e-01 -6.18761372e-01 -4.06001029e-01 -4.06000865e-01
 -3.80641534e-01 -2.58339951e-01 -2.58339915e-01 -1.95678137e-02
  1.58157775e-02  6.08532525e-02  6.08540776e-02  1.28526761e-01
  1.52349778e-01  1.52352442e-01  2.55385328e-01  2.57640412e-01
  2.57641203e-01  3.11671132e-01  3.25456159e-01  3.25457967e-01
  3.38098160e-01  3.38099010e-01  3.79812039e-01  3.79812332e-01
  3.86277753e-01  5.29292980e-01  5.95280860e-01  6.01468098e-01
  6.01470394e-01  6.72431263e-01  6.72432903e-01  6.91519770e-01
  7.19270272e-01  7.55957193e-01  7.55969967e-01  8.30067554e-01
  9.20785130e-01  9.20790592e-01  9.42874394e-01  9.55005937e-01
  9.55010894e-01  1.05611282e+00  1.05611514e+00  1.11348166e+00
  1.28480747e+00  1.29562120e+00  1.30400674e+00  1.30400693e+00
  1.32990132e+00  1.32990148e+00  1.33800346e+00  1.48006152e+00
  1.54012365e+00  1.54012612e+00  1.61767489e+00  1.61767549e+00
  1.64176585e+00  1.71473781e+00  1.72678820e+00  1.72678925e+00
  1.82402147e+00  1.82402684e+00  1.83954580e+00  1.93105658e+00
  1.93105755e+00  1.93964075e+00  2.04095387e+00  2.08256647e+00
  2.08256649e+00  2.13570268e+00  2.13570801e+00  2.21798407e+00
  2.22926931e+00  2.22927411e+00  2.34326018e+00  2.34326467e+00
  2.37924502e+00  2.54159945e+00  2.57837290e+00  2.57838751e+00
  2.63017163e+00  2.63018282e+00  2.77811517e+00  2.83186547e+00
  2.83186834e+00  2.83355233e+00  2.91144251e+00  3.04320266e+00
  3.04369076e+00  3.04369154e+00  3.05073261e+00  3.15340620e+00
  3.15340690e+00  3.15664797e+00  3.38624329e+00  3.38624441e+00
  3.46937874e+00  3.57944622e+00  3.57948184e+00  3.60575868e+00
  3.73463152e+00  3.73463316e+00  3.75606732e+00  3.75745468e+00
  3.79245669e+00  3.79245718e+00  3.91723460e+00  3.91723506e+00
  3.97297124e+00  3.98226509e+00  4.02450802e+00  4.21639972e+00
  4.21640625e+00  4.24393660e+00  4.39765821e+00  4.39765887e+00
  4.66154583e+00  4.66155795e+00  4.75409668e+00  4.75409783e+00
  4.84351519e+00  5.09030849e+00  5.22200982e+00  5.22201310e+00
  5.22283282e+00  5.32851336e+00  5.32851407e+00  5.55537235e+00
  5.61699531e+00  5.61699782e+00  5.78184851e+00  5.78184886e+00
  5.86237087e+00  5.86237114e+00  5.89872905e+00  5.99517588e+00
  6.09183641e+00  6.12514844e+00  6.12514866e+00  6.14794220e+00
  6.14794522e+00  6.27402463e+00  6.27402571e+00  6.30389163e+00
  6.42844614e+00  6.57248507e+00  6.57248974e+00  6.62566976e+00
  6.94614703e+00  6.94614833e+00  7.10621428e+00  7.16027694e+00
  7.26364875e+00  7.26365567e+00  7.37302668e+00  7.42404682e+00
  7.42405408e+00  7.54683268e+00  7.60923713e+00  7.60924307e+00
  7.63399078e+00  7.63401142e+00  7.64203985e+00  7.74241222e+00
  7.87983920e+00  7.87984242e+00  8.18497226e+00  8.18498884e+00
  8.22010775e+00  8.24819110e+00  8.24819259e+00  8.29785563e+00
  8.29786107e+00  8.31893315e+00  8.36261651e+00  8.75492677e+00
  8.87088882e+00  8.87089094e+00  8.93298842e+00  9.18476859e+00
  9.18477230e+00  9.87969352e+00  9.94841612e+00  9.94842642e+00
  1.00361449e+01  1.01230844e+01  1.01230872e+01  1.01914086e+01
  1.01914105e+01  1.03693231e+01  1.04386441e+01  1.11063790e+01
  1.11063797e+01  1.16650550e+01  1.23585051e+01  1.23585095e+01
  1.74868747e+01  2.01868433e+01]
nelec by numeric integration = 14.000001265737735
    CPU time for vxc     42.13 sec, wall time      0.34 sec
    CPU time for df-vj      8.35 sec, wall time      0.07 sec
E1 = -74.15209770989257  Ecoul = 37.59900163817909  Exc = -5.57309286360702
cycle= 9 E= -22.3172352754777  delta_E= -3.02e-11  |g|= 9.08e-07  |ddm|= 3.43e-05
    CPU time for cycle= 9    122.13 sec, wall time      1.06 sec
  HOMO = -0.258339947390598  LUMO = -0.0195679791717252
  mo_energy =
[-7.90715577e-01 -6.18761696e-01 -4.06001384e-01 -4.06001220e-01
 -3.80641706e-01 -2.58339983e-01 -2.58339947e-01 -1.95679792e-02
  1.58156250e-02  6.08530788e-02  6.08539039e-02  1.28526661e-01
  1.52349678e-01  1.52352342e-01  2.55385270e-01  2.57640337e-01
  2.57641127e-01  3.11670954e-01  3.25456073e-01  3.25457881e-01
  3.38098047e-01  3.38098898e-01  3.79812004e-01  3.79812298e-01
  3.86277661e-01  5.29292925e-01  5.95280695e-01  6.01468019e-01
  6.01470315e-01  6.72431101e-01  6.72432741e-01  6.91519641e-01
  7.19270089e-01  7.55957055e-01  7.55969829e-01  8.30067502e-01
  9.20784963e-01  9.20790424e-01  9.42874174e-01  9.55005781e-01
  9.55010738e-01  1.05611258e+00  1.05611489e+00  1.11348145e+00
  1.28480751e+00  1.29562118e+00  1.30400673e+00  1.30400693e+00
  1.32990131e+00  1.32990147e+00  1.33800345e+00  1.48006141e+00
  1.54012362e+00  1.54012609e+00  1.61767474e+00  1.61767534e+00
  1.64176563e+00  1.71473762e+00  1.72678793e+00  1.72678898e+00
  1.82402125e+00  1.82402661e+00  1.83954558e+00  1.93105630e+00
  1.93105728e+00  1.93964048e+00  2.04095365e+00  2.08256635e+00
  2.08256637e+00  2.13570248e+00  2.13570781e+00  2.21798383e+00
  2.22926909e+00  2.22927388e+00  2.34325997e+00  2.34326447e+00
  2.37924480e+00  2.54159924e+00  2.57837275e+00  2.57838735e+00
  2.63017144e+00  2.63018263e+00  2.77811493e+00  2.83186531e+00
  2.83186819e+00  2.83355214e+00  2.91144244e+00  3.04320243e+00
  3.04369051e+00  3.04369129e+00  3.05073243e+00  3.15340590e+00
  3.15340660e+00  3.15664774e+00  3.38624300e+00  3.38624412e+00
  3.46937851e+00  3.57944627e+00  3.57948188e+00  3.60575860e+00
  3.73463133e+00  3.73463297e+00  3.75606721e+00  3.75745467e+00
  3.79245649e+00  3.79245698e+00  3.91723450e+00  3.91723496e+00
  3.97297125e+00  3.98226504e+00  4.02450794e+00  4.21639970e+00
  4.21640623e+00  4.24393652e+00  4.39765813e+00  4.39765879e+00
  4.66154582e+00  4.66155795e+00  4.75409665e+00  4.75409780e+00
  4.84351499e+00  5.09030806e+00  5.22200940e+00  5.22201269e+00
  5.22283236e+00  5.32851297e+00  5.32851367e+00  5.55537191e+00
  5.61699487e+00  5.61699737e+00  5.78184809e+00  5.78184844e+00
  5.86237054e+00  5.86237081e+00  5.89872875e+00  5.99517547e+00
  6.09183608e+00  6.12514809e+00  6.12514830e+00  6.14794190e+00
  6.14794491e+00  6.27402420e+00  6.27402528e+00  6.30389121e+00
  6.42844567e+00  6.57248466e+00  6.57248933e+00  6.62566940e+00
  6.94614651e+00  6.94614781e+00  7.10621398e+00  7.16027655e+00
  7.26364840e+00  7.26365531e+00  7.37302635e+00  7.42404649e+00
  7.42405375e+00  7.54683232e+00  7.60923683e+00  7.60924277e+00
  7.63399047e+00  7.63401111e+00  7.64203956e+00  7.74241193e+00
  7.87983891e+00  7.87984213e+00  8.18497193e+00  8.18498851e+00
  8.22010736e+00  8.24819074e+00  8.24819223e+00  8.29785516e+00
  8.29786061e+00  8.31893283e+00  8.36261615e+00  8.75492640e+00
  8.87088846e+00  8.87089058e+00  8.93298807e+00  9.18476822e+00
  9.18477192e+00  9.87969312e+00  9.94841574e+00  9.94842604e+00
  1.00361444e+01  1.01230839e+01  1.01230867e+01  1.01914082e+01
  1.01914100e+01  1.03693227e+01  1.04386436e+01  1.11063790e+01
  1.11063797e+01  1.16650549e+01  1.23585046e+01  1.23585090e+01
  1.74868746e+01  2.01868425e+01]
nelec by numeric integration = 14.000001265740586
    CPU time for vxc     36.75 sec, wall time      0.29 sec
    CPU time for df-vj      7.31 sec, wall time      0.06 sec
E1 = -74.15210075855879  Ecoul = 37.599005187196646  Exc = -5.573093363958054
Extra cycle  E= -22.3172352754774  delta_E= 3.06e-13  |g|= 1.47e-06  |ddm|= 4.11e-06
    CPU time for scf_cycle   1416.23 sec, wall time     11.84 sec
    CPU time for SCF   1416.66 sec, wall time     11.84 sec
converged SCF energy = -22.3172352754774
