#INFO: **** input file is /home/nkousuke/lustre/toBeSync/turboRVB/05turbo-genius-development/turbogenius_paper/04data/sanity_checks/03pyscf_HF_turbo_VMC_via_trexio/00open_boundary/results/PH2/pyscf-HF-workflow/run.py ****

from pyscf_wrapper import Pyscf_wrapper

# input variables
pyscf_chkfile="pyscf.chk"
structure_file="PH2.xyz"

# input variables
omp_num_threads=128
charge=0
spin=1
basis="ccecp-ccpvqz"
ecp="ccecp"
scf_method="HF"
dft_xc="NA"
solver_newton=False
MP2_flag=False
CCSD_flag=False
pyscf_output="out.pyscf"
twist_average=False
exp_to_discard=0.0
kpt=[0.0, 0.0, 0.0]
kpt_grid=[1, 1, 1]
smearing_method="fermi"
smearing_sigma=0.0

pyscf_calc=Pyscf_wrapper(
                        structure_file=structure_file,
                        chkfile=pyscf_chkfile,
                        )

pyscf_calc.run_pyscf(
                  omp_num_threads=omp_num_threads,
                  charge=charge,
                  spin=spin,
                  basis=basis,
                  ecp=ecp,
                  scf_method=scf_method,
                  dft_xc=dft_xc,
                  solver_newton=solver_newton,
                  MP2_flag=MP2_flag,
                  CCSD_flag=CCSD_flag,
                  pyscf_output=pyscf_output,
                  twist_average=twist_average,
                  exp_to_discard=exp_to_discard,
                  kpt=kpt,
                  kpt_grid=kpt_grid,
                  smearing_method=smearing_method,
                  smearing_sigma=smearing_sigma
                  )
                #INFO: ******************** input file end ********************


System: uname_result(system='Linux', node='spcc-145', release='5.4.0-66-generic', version='#74-Ubuntu SMP Wed Jan 27 22:54:38 UTC 2021', machine='x86_64', processor='x86_64')  Threads 128
Python 3.7.3 (default, Mar 27 2019, 22:11:17) 
[GCC 7.3.0]
numpy 1.20.1  scipy 1.7.3
Date: Mon Dec 19 18:05:08 2022
PySCF version 2.0.1
PySCF path  /home/nkousuke/application/anaconda3/lib/python3.7/site-packages/pyscf

[CONFIG] conf_file /home/nkousuke/.pyscf_conf.py
[INPUT] verbose = 5
[INPUT] max_memory = 506553.37109375 
[INPUT] num. atoms = 3
[INPUT] num. electrons = 7
[INPUT] charge = 0
[INPUT] spin (= nelec alpha-beta = 2S) = 1
[INPUT] symmetry False subgroup None
[INPUT] Mole.unit = A
[INPUT]  1 P      0.000000000000   0.000000000000  -0.115657000000 AA    0.000000000000   0.000000000000  -0.218560054389 Bohr
[INPUT]  2 H      1.020130000000   0.000000000000   0.867427000000 AA    1.927766311453   0.000000000000   1.639199463053 Bohr
[INPUT]  3 H     -1.020130000000   0.000000000000   0.867427000000 AA   -1.927766311453   0.000000000000   1.639199463053 Bohr
[INPUT] ---------------- BASIS SET ---------------- 
[INPUT] l, kappa, [nprim/nctr], expnt,             c_1 c_2 ...
[INPUT] H
[INPUT] 0    0    [8    /1   ]  23.843185         0.0041149
                                10.212443         0.0104644
                                4.374164          0.0280111
                                1.873529          0.0758862
                                0.802465          0.1821062
                                0.343709          0.3485214
                                0.147217          0.3782313
                                0.063055          0.1164241
[INPUT] 0    0    [1    /1   ]  0.081856             1
[INPUT] 0    0    [1    /1   ]  0.233254             1
[INPUT] 0    0    [1    /1   ]  0.664673             1
[INPUT] 1    0    [1    /1   ]  0.284469             1
[INPUT] 1    0    [1    /1   ]  0.847159             1
[INPUT] 1    0    [1    /1   ]  2.522868             1
[INPUT] 2    0    [1    /1   ]  0.665279             1
[INPUT] 2    0    [1    /1   ]  2.048739             1
[INPUT] 3    0    [1    /1   ]  1.42146              1
[INPUT] P
[INPUT] 0    0    [10   /1   ]  5.054268          0.001781
                                3.094719          0.077653
                                1.894891          -0.312344
                                1.160239          -0.045804
                                0.710412          -0.029427
                                0.434984          0.31856
                                0.26634           0.309169
                                0.16308           0.376899
                                0.099853          0.152113
                                0.06114           0.054943
[INPUT] 0    0    [1    /1   ]  0.636005             1
[INPUT] 0    0    [1    /1   ]  0.25859              1
[INPUT] 0    0    [1    /1   ]  0.105139             1
[INPUT] 1    0    [10   /1   ]  5.861284          -0.00316
                                3.406365          0.007462
                                1.979655          -0.060893
                                1.150503          0.015297
                                0.668631          0.123431
                                0.388584          0.257276
                                0.225831          0.305131
                                0.131245          0.276016
                                0.076275          0.134133
                                0.044328          0.040073
[INPUT] 1    0    [1    /1   ]  1.653678             1
[INPUT] 1    0    [1    /1   ]  0.679946             1
[INPUT] 1    0    [1    /1   ]  0.279575             1
[INPUT] 2    0    [1    /1   ]  1.375779             1
[INPUT] 2    0    [1    /1   ]  0.502887             1
[INPUT] 2    0    [1    /1   ]  0.18382              1
[INPUT] 3    0    [1    /1   ]  0.72673              1
[INPUT] 3    0    [1    /1   ]  0.284724             1
[INPUT] 4    0    [1    /1   ]  0.59499              1

nuclear repulsion = 3.99457330953474
number of shells = 34
number of NR pGTOs = 164
number of NR cGTOs = 114
basis = ccecp-ccpvqz
ecp = ccecp
CPU time:         6.68


******** <class 'pyscf.scf.rohf.ROHF'> ********
method = ROHF-RHF
initial guess = minao
damping factor = 0
level_shift factor = 0
DIIS = <class 'pyscf.scf.diis.CDIIS'>
diis_start_cycle = 1
diis_space = 8
SCF conv_tol = 1e-09
SCF conv_tol_grad = None
SCF max_cycles = 200
direct_scf = True
direct_scf_tol = 1e-13
chkfile to save SCF result = pyscf.chk
max_memory 506553 MB (current use 106 MB)
num. doubly occ = 3  num. singly occ = 1
Set gradient conv threshold to 3.16228e-05
E1 = -18.761524569709128  Ecoul = 7.666570420674395
init E= -7.10038083949999
cond(S) = 14674.617879558527
    CPU time for initialize scf     91.67 sec, wall time      0.85 sec
  HOMO = -0.186106023037477  LUMO = 0.0977388856438978
                  Roothaan           | alpha              | beta
  Highest 2-occ = -0.328704389981536 | -0.328704389981534 | -0.328704389981534
  Lowest 0-occ =  0.0977388856438978 | 0.0977388856438936 | 0.0977388856438936
  1-occ =         -0.186106023037477 |  -0.18610602303748 |  -0.18610602303748
  Roothaan mo_energy =
[-0.92706629 -0.45524051 -0.32870439 -0.18610602  0.09773889  0.09976326
  0.21610864  0.25477533  0.3367389   0.36140987  0.36221598  0.36527678
  0.39775769  0.40797127  0.43514005  0.56552682  0.62713933  0.75515647
  0.77963334  0.80360935  0.81088115  0.99346578  1.02386919  1.02696387
  1.09252056  1.10726187  1.16219174  1.18821564  1.19669755  1.19960914
  1.24822767  1.27313214  1.28943022  1.29740703  1.38303117  1.49752218
  1.57693093  1.84443621  1.87699359  2.15102395  2.15915724  2.2346353
  2.28515449  2.30000761  2.33104072  2.38363719  2.41756711  2.44907248
  2.45357195  2.66574712  2.67069781  2.77540385  2.7812754   2.80538482
  2.87269983  2.92212808  2.98022814  3.00388935  3.03240106  3.04834095
  3.06338661  3.12954158  3.1346317   3.14700504  3.16337231  3.23895925
  3.26313891  3.37293189  3.38465838  3.41443961  3.67559983  3.7390436
  4.07176326  4.11365682  4.14808823  4.16759652  4.42395477  4.48522839
  6.16168325  6.16813667  6.17571411  6.21171163  6.38001224  6.48540398
  6.67037845  6.68900205  6.69592032  6.72261458  6.73020285  6.76153286
  6.83503841  7.1216676   7.24721314  7.28793141  7.4275651   7.72910639
  7.80821572  8.23150442  8.23927995  8.33363493  8.33600268  8.52705133
  8.54136424  8.54688927  8.67552273  8.83609146  8.88566216  8.89198849
  9.04264753  9.18641928  9.19120681  9.90990437 10.44104077 12.84043311]
E1 = -18.987495079674584  Ecoul = 7.4964215910699075
cycle= 1 E= -7.49650017906994  delta_E= -0.396  |g|= 0.138  |ddm|= 1.93
    CPU time for cycle= 1    134.36 sec, wall time      1.15 sec
  HOMO = -0.176047082499405  LUMO = 0.110130974060671
                  Roothaan           | alpha              | beta
  Highest 2-occ = -0.427088478024911 |  -0.44397505846282 | -0.410201897587001
  Lowest 0-occ =   0.110130974060671 |  0.106574064905598 |  0.113687883215741
  1-occ =         -0.176047082499405 | -0.372449828362278 | 0.0292285095268339
  Roothaan mo_energy =
[-0.84838976 -0.54032774 -0.42708848 -0.17604708  0.11013097  0.1363949
  0.20901875  0.2602659   0.34051462  0.36067638  0.36664468  0.3702713
  0.4029037   0.42062812  0.44510905  0.57272196  0.63468981  0.75057012
  0.77246234  0.79847234  0.81285795  0.99376168  1.02309579  1.03293777
  1.09512299  1.10726245  1.16837445  1.18877545  1.19938074  1.20434385
  1.25233439  1.27897519  1.29271882  1.30173059  1.38302044  1.50636576
  1.58329385  1.84162279  1.89258876  2.14700053  2.15690735  2.23474914
  2.28633776  2.30637528  2.33036547  2.38094498  2.41531826  2.4502842
  2.45636339  2.66142061  2.66986768  2.76837123  2.77631441  2.79593866
  2.86737768  2.92651426  2.98583398  3.00416787  3.03618725  3.04575458
  3.06979525  3.13636264  3.14608973  3.14796913  3.16789209  3.24264939
  3.26692497  3.36799548  3.38739554  3.41773335  3.67986179  3.74121002
  4.08081625  4.1129071   4.1467367   4.17259348  4.42700114  4.49073958
  6.16117752  6.1679745   6.17547929  6.21122222  6.38395736  6.48774689
  6.67662892  6.69323523  6.69795062  6.72797715  6.73261341  6.76684222
  6.83859654  7.12997426  7.25401413  7.2963564   7.42659322  7.73226396
  7.80514967  8.23024527  8.23754104  8.33174287  8.33332642  8.518954
  8.533414    8.5375377   8.67286013  8.83602103  8.88443461  8.89167843
  9.04562532  9.18713513  9.19194995  9.9161696  10.44563933 12.8351802 ]
E1 = -19.122127188958785  Ecoul = 7.6199940207142856
cycle= 2 E= -7.50755985870976  delta_E= -0.0111  |g|= 0.0382  |ddm|= 0.537
    CPU time for cycle= 2     91.94 sec, wall time      0.79 sec
  HOMO = -0.155457389380474  LUMO = 0.120281971682104
                  Roothaan           | alpha              | beta
  Highest 2-occ = -0.416101570043983 | -0.433647851462805 | -0.400375709579059
  Lowest 0-occ =   0.120281971682104 |  0.116007378687849 |  0.122941605833989
  1-occ =         -0.155457389380474 | -0.362949860887234 | 0.0489972821154063
  Roothaan mo_energy =
[-0.82038524 -0.51845258 -0.41610157 -0.15545739  0.12028197  0.14867129
  0.21451293  0.272105    0.35677072  0.37632037  0.37650939  0.38080686
  0.40638717  0.42842312  0.45858874  0.58395962  0.64591603  0.76385792
  0.78917219  0.81209513  0.82394773  1.00613597  1.03991487  1.0456619
  1.10565677  1.12346455  1.19056856  1.20690302  1.21243644  1.22091786
  1.26535391  1.29478695  1.3015303   1.31793992  1.40205368  1.52384621
  1.60773752  1.86342481  1.902495    2.17445645  2.18038359  2.26681704
  2.30918204  2.32344373  2.3602037   2.41177642  2.44572993  2.47241349
  2.48437453  2.68778346  2.6930948   2.79174791  2.80141588  2.82038543
  2.89147158  2.95327105  3.00310173  3.02241369  3.0571205   3.0652086
  3.0861257   3.15544637  3.16175986  3.17013512  3.19514478  3.26713164
  3.2870184   3.39636823  3.41309388  3.44339801  3.70860598  3.77221894
  4.10420003  4.13965437  4.17445636  4.20142256  4.45795072  4.52359834
  6.1981582   6.20331276  6.2114005   6.24699882  6.42440281  6.52393266
  6.71479077  6.73458944  6.73790876  6.76982547  6.77089582  6.80536799
  6.88094528  7.17426907  7.29549014  7.34133757  7.46544473  7.7662327
  7.84216948  8.27298612  8.27917617  8.37486769  8.37489432  8.56170894
  8.57659159  8.57927327  8.7149163   8.87976844  8.92744457  8.93578616
  9.09007345  9.23256742  9.23611999  9.96289802 10.49424162 12.87427992]
E1 = -19.10863384098531  Ecoul = 7.6054708342946284
cycle= 3 E= -7.50858969715594  delta_E= -0.00103  |g|= 0.0117  |ddm|= 0.0752
    CPU time for cycle= 3     81.46 sec, wall time      0.64 sec
  HOMO = -0.157723755019624  LUMO = 0.11964866863071
                  Roothaan           | alpha              | beta
  Highest 2-occ = -0.417962919853349 | -0.435785605261266 | -0.401034493028138
  Lowest 0-occ =    0.11964866863071 |  0.115670093671643 |  0.122510893328087
  1-occ =         -0.157723755019624 | -0.364953182488072 |  0.047915103245909
  Roothaan mo_energy =
[-0.82295049 -0.52276981 -0.41796292 -0.15772376  0.11964867  0.14919479
  0.21361473  0.27052834  0.35616865  0.37528432  0.37631473  0.37983799
  0.40494802  0.42847813  0.45737333  0.58294555  0.64503565  0.76277342
  0.78779882  0.81086412  0.823104    1.0051935   1.03840122  1.04461864
  1.10483628  1.12123107  1.18780422  1.20451184  1.21219976  1.21772303
  1.26389619  1.29311238  1.30084668  1.31616277  1.39941855  1.52251805
  1.60575971  1.85983788  1.90257043  2.17187271  2.17882956  2.26397107
  2.30789409  2.3211333   2.35821053  2.40916739  2.44131661  2.47140786
  2.48257966  2.68566492  2.691887    2.79070143  2.79866843  2.81874496
  2.88942634  2.94898215  3.00194371  3.0209674   3.05445703  3.06224797
  3.0849292   3.15392727  3.16073723  3.16749791  3.19127609  3.26374261
  3.28536242  3.3913898   3.40944375  3.43953354  3.70598503  3.76914934
  4.10176124  4.13627887  4.17088197  4.19765981  4.45519019  4.52102745
  6.19667013  6.20237464  6.21026329  6.24593561  6.42221937  6.52282186
  6.71309616  6.73215436  6.73418094  6.76679228  6.76870797  6.80450442
  6.87946423  7.17222456  7.29382912  7.33887888  7.4609888   7.76379483
  7.83941643  8.27317484  8.27967581  8.37481643  8.37524407  8.56261989
  8.57734683  8.57973906  8.71607718  8.87975976  8.92715661  8.9355492
  9.0896972   9.23196865  9.23592076  9.96210218 10.49274406 12.86681446]
E1 = -19.112381677192733  Ecoul = 7.609097469751678
cycle= 4 E= -7.50871089790632  delta_E= -0.000121  |g|= 0.00217  |ddm|= 0.0357
    CPU time for cycle= 4    101.59 sec, wall time      0.81 sec
  HOMO = -0.158272711965475  LUMO = 0.119500500832309
                  Roothaan           | alpha              | beta
  Highest 2-occ = -0.418379496301815 | -0.435822093389602 | -0.400760124414208
  Lowest 0-occ =   0.119500500832309 |  0.116082714095171 |  0.122924515720228
  1-occ =         -0.158272711965475 |  -0.36484768590698 | 0.0484589098256684
  Roothaan mo_energy =
[-0.82332121 -0.52307029 -0.4183795  -0.15827271  0.1195005   0.14904192
  0.21339353  0.27024564  0.35602232  0.37491655  0.37615515  0.37960047
  0.40481358  0.42829882  0.4571155   0.58261574  0.64476541  0.76255049
  0.7874879   0.81068366  0.82294818  1.00486486  1.03816689  1.04428935
  1.10446464  1.12096572  1.18735662  1.20416505  1.21177388  1.21712443
  1.26356982  1.29281788  1.30049595  1.31570754  1.39900896  1.52216777
  1.60544569  1.8592804   1.90208399  2.17157632  2.17852573  2.26369527
  2.30756482  2.32042297  2.3578516   2.40893654  2.44094193  2.47100696
  2.48226493  2.68533731  2.69163116  2.79052498  2.7983391   2.8185745
  2.88897703  2.94832179  3.00153332  3.02050669  3.05381673  3.06147596
  3.08440604  3.15331795  3.16017832  3.16709629  3.19072555  3.26319798
  3.28498105  3.39066896  3.40897021  3.43888638  3.7055485   3.76879293
  4.10114381  4.13577671  4.17031516  4.19715902  4.45464226  4.52059913
  6.1965394   6.20217215  6.21009251  6.24576476  6.42200946  6.52255262
  6.71277946  6.73192914  6.73384364  6.76639512  6.7684102   6.80421249
  6.8792455   7.17200632  7.29354466  7.33866604  7.46048372  7.76341717
  7.83894669  8.27312917  8.27961546  8.37478912  8.37520219  8.56264536
  8.57738207  8.57977691  8.71595329  8.87969451  8.92710992  8.93549708
  9.08958159  9.23194343  9.23584416  9.96191505 10.49252242 12.86607019]
E1 = -19.11237093288678  Ecoul = 7.609082136454138
cycle= 5 E= -7.5087154868979  delta_E= -4.59e-06  |g|= 0.000227  |ddm|= 0.00633
    CPU time for cycle= 5     83.75 sec, wall time      0.69 sec
  HOMO = -0.158221328590186  LUMO = 0.119503746633509
                  Roothaan           | alpha              | beta
  Highest 2-occ = -0.418332866165392 | -0.435896010431589 | -0.400768208171045
  Lowest 0-occ =   0.119503746633509 |  0.116089407187593 |   0.12292258673602
  1-occ =         -0.158221328590186 | -0.364864217703312 | 0.0484279699227874
  Roothaan mo_energy =
[-0.82329797 -0.52304615 -0.41833287 -0.15822133  0.11950375  0.14910681
  0.2134207   0.27027105  0.35607647  0.37497578  0.37619589  0.37964712
  0.4048419   0.42834579  0.45713289  0.58265031  0.64479693  0.7625749
  0.78752108  0.81071898  0.82296225  1.00491423  1.03821886  1.0443332
  1.10452068  1.12098911  1.18741544  1.20422704  1.21180934  1.21721266
  1.26363896  1.2928628   1.30055004  1.31577701  1.39905856  1.52221439
  1.6055065   1.85938315  1.90217959  2.17160266  2.17857432  2.26372232
  2.30761742  2.32049528  2.35792359  2.40898658  2.44099456  2.47106076
  2.48231324  2.68540138  2.69168351  2.79057986  2.7983891   2.81863008
  2.8890539   2.94841474  3.00162133  3.02058711  3.05390458  3.06155911
  3.08451904  3.15339095  3.16027655  3.16716729  3.19081065  3.26328795
  3.28506699  3.39078056  3.40907851  3.43898643  3.70562001  3.76886661
  4.1012118   4.13586805  4.17040742  4.19722872  4.45473644  4.52068782
  6.19658194  6.20222496  6.21013899  6.24581517  6.4220649   6.52262053
  6.71287491  6.73200876  6.73393556  6.76649096  6.76848688  6.80430488
  6.87931959  7.17209011  7.29362596  7.33872896  7.46060229  7.7635312
  7.83905737  8.27320474  8.27970221  8.37485223  8.37527896  8.56274401
  8.57747629  8.57984966  8.71606609  8.87978864  8.92718072  8.93558713
  9.08966474  9.23202767  9.23594196  9.96202764 10.492636   12.86620585]
E1 = -19.112335505405838  Ecoul = 7.609046662740999
cycle= 6 E= -7.5087155331301  delta_E= -4.62e-08  |g|= 2.55e-05  |ddm|= 0.000776
    CPU time for cycle= 6     94.79 sec, wall time      0.75 sec
  HOMO = -0.158228079331422  LUMO = 0.119503680545177
                  Roothaan           | alpha              | beta
  Highest 2-occ = -0.418340458966263 | -0.435904965498574 | -0.400774899387645
  Lowest 0-occ =   0.119503680545177 |  0.116087439695422 |  0.122920517485047
  1-occ =         -0.158228079331422 |  -0.36487430619608 | 0.0484214543122827
  Roothaan mo_energy =
[-0.82330319 -0.52304183 -0.41834046 -0.15822808  0.11950368  0.14910081
  0.21342116  0.27026818  0.35607231  0.37497159  0.37618767  0.37964216
  0.40483476  0.42834037  0.45713045  0.58264739  0.6447941   0.76257631
  0.78752389  0.81071963  0.82296149  1.00491015  1.03821632  1.04432728
  1.10451407  1.12098664  1.18740745  1.20421963  1.2118033   1.21720107
  1.26362924  1.29285648  1.30054331  1.31576857  1.39905399  1.52221032
  1.60550499  1.85937046  1.90216224  2.17160645  2.17857594  2.2637252
  2.30761711  2.32048252  2.35792332  2.40898865  2.4409898   2.47105995
  2.48231287  2.68540085  2.69168342  2.79058337  2.79838783  2.81863351
  2.8890509   2.94839979  3.00161169  3.02057988  3.05389241  3.0615482
  3.08450447  3.1533819   3.1602621   3.16716054  3.19079791  3.26327564
  3.28505844  3.39076458  3.40906346  3.43897125  3.70561404  3.76886138
  4.10120261  4.13585851  4.17039763  4.19721887  4.45472853  4.52068145
  6.19658996  6.20223203  6.21014655  6.24582259  6.42206943  6.52262486
  6.71287218  6.7320106   6.73393043  6.76648702  6.76848802  6.80430566
  6.87932377  7.17209293  7.29362759  7.33873187  7.46059099  7.76352138
  7.83905008  8.27321528  8.27971211  8.37486301  8.37528958  8.56275562
  8.57748809  8.57986188  8.71607489  8.87979728  8.92719015  8.93559586
  9.08967227  9.23203574  9.23594895  9.96202957 10.49263746 12.86618186]
E1 = -19.112345588947946  Ecoul = 7.609056745699584
cycle= 7 E= -7.50871553371362  delta_E= -5.84e-10  |g|= 6.36e-06  |ddm|= 0.00015
    CPU time for cycle= 7     91.31 sec, wall time      0.74 sec
  HOMO = -0.15822517882698  LUMO = 0.119504165108072
                  Roothaan           | alpha              | beta
  Highest 2-occ = -0.418338088378033 | -0.435902983376168 | -0.400773193379902
  Lowest 0-occ =   0.119504165108072 |  0.116087600640723 |  0.122920729575421
  1-occ =          -0.15822517882698 | -0.364873987322613 | 0.0484237628572483
  Roothaan mo_energy =
[-0.82330096 -0.52304001 -0.41833809 -0.15822518  0.11950417  0.14910212
  0.21342182  0.27026905  0.35607391  0.37497318  0.37618872  0.37964376
  0.40483482  0.42834155  0.45713146  0.58264857  0.64479525  0.76257703
  0.78752467  0.81072027  0.82296243  1.00491168  1.03821771  1.04432872
  1.10451554  1.12098788  1.18741001  1.20422167  1.2118047   1.21720392
  1.26363158  1.29285848  1.3005449   1.31577084  1.39905599  1.52221196
  1.60550656  1.85937361  1.90216602  2.17160741  2.17857714  2.26372636
  2.30761843  2.32048556  2.35792487  2.40899001  2.44099233  2.47106133
  2.48231439  2.68540266  2.69168516  2.79058455  2.79838965  2.81863476
  2.88905301  2.94840365  3.00161477  3.02058245  3.05389555  3.06155089
  3.08450818  3.15338485  3.16026571  3.16716317  3.19080137  3.2632789
  3.28506146  3.39076864  3.40906757  3.43897529  3.70561657  3.76886388
  4.10120537  4.13586191  4.170401    4.1972223   4.45473159  4.52068444
  6.19659061  6.20223272  6.2101472   6.24582329  6.42207054  6.5226259
  6.71287459  6.7320122   6.73393335  6.76648946  6.76848971  6.80430742
  6.87932499  7.17209432  7.29362914  7.3387332   7.46059501  7.76352532
  7.83905339  8.27321571  8.27971267  8.37486338  8.37528998  8.56275609
  8.57748853  8.57986221  8.71607564  8.87979801  8.92719073  8.93559661
  9.08967309  9.23203655  9.23594991  9.9620314  10.49263931 12.86618815]
E1 = -19.112343038563537  Ecoul = 7.6090541952775315
Extra cycle  E= -7.50871553375127  delta_E= -3.76e-11  |g|= 2.27e-06  |ddm|= 2.58e-05
    CPU time for scf_cycle    822.79 sec, wall time      6.85 sec
    CPU time for SCF    822.83 sec, wall time      6.85 sec
converged SCF energy = -7.50871553375127
