#INFO: **** input file is /home/nkousuke/lustre/toBeSync/turboRVB/05turbo-genius-development/turbogenius_paper/04data/sanity_checks/03pyscf_HF_turbo_VMC_via_trexio/00open_boundary/results/N2H4/pyscf-HF-workflow/run.py ****

from pyscf_wrapper import Pyscf_wrapper

# input variables
pyscf_chkfile="pyscf.chk"
structure_file="N2H4.xyz"

# input variables
omp_num_threads=128
charge=0
spin=0
basis="ccecp-ccpvqz"
ecp="ccecp"
scf_method="HF"
dft_xc="NA"
solver_newton=False
MP2_flag=False
CCSD_flag=False
pyscf_output="out.pyscf"
twist_average=False
exp_to_discard=0.0
kpt=[0.0, 0.0, 0.0]
kpt_grid=[1, 1, 1]
smearing_method="fermi"
smearing_sigma=0.0

pyscf_calc=Pyscf_wrapper(
                        structure_file=structure_file,
                        chkfile=pyscf_chkfile,
                        )

pyscf_calc.run_pyscf(
                  omp_num_threads=omp_num_threads,
                  charge=charge,
                  spin=spin,
                  basis=basis,
                  ecp=ecp,
                  scf_method=scf_method,
                  dft_xc=dft_xc,
                  solver_newton=solver_newton,
                  MP2_flag=MP2_flag,
                  CCSD_flag=CCSD_flag,
                  pyscf_output=pyscf_output,
                  twist_average=twist_average,
                  exp_to_discard=exp_to_discard,
                  kpt=kpt,
                  kpt_grid=kpt_grid,
                  smearing_method=smearing_method,
                  smearing_sigma=smearing_sigma
                  )
                #INFO: ******************** input file end ********************


System: uname_result(system='Linux', node='spcc-238', release='5.4.0-66-generic', version='#74-Ubuntu SMP Wed Jan 27 22:54:38 UTC 2021', machine='x86_64', processor='x86_64')  Threads 128
Python 3.7.3 (default, Mar 27 2019, 22:11:17) 
[GCC 7.3.0]
numpy 1.20.1  scipy 1.7.3
Date: Mon Dec 19 18:06:38 2022
PySCF version 2.0.1
PySCF path  /home/nkousuke/application/anaconda3/lib/python3.7/site-packages/pyscf

[CONFIG] conf_file /home/nkousuke/.pyscf_conf.py
[INPUT] verbose = 5
[INPUT] max_memory = 506323.60546875 
[INPUT] num. atoms = 6
[INPUT] num. electrons = 14
[INPUT] charge = 0
[INPUT] spin (= nelec alpha-beta = 2S) = 0
[INPUT] symmetry False subgroup None
[INPUT] Mole.unit = A
[INPUT]  1 N     -0.059400440000  -0.714452590000  -0.042538230000 AA   -0.112250563279  -1.350119724086  -0.080385604524 Bohr
[INPUT]  2 N      0.059400440000   0.714452590000  -0.042538230000 AA    0.112250563279   1.350119724086  -0.080385604524 Bohr
[INPUT]  3 H     -0.311979690000  -1.069214670000   0.870938490000 AA   -0.589556170527  -2.020522894667   1.645835217442 Bohr
[INPUT]  4 H      0.311979690000   1.069214670000   0.870938490000 AA    0.589556170527   2.020522894667   1.645835217442 Bohr
[INPUT]  5 H      0.845943960000  -1.091464910000  -0.279811860000 AA    1.598602401130  -2.062569754473  -0.528767781805 Bohr
[INPUT]  6 H     -0.845943960000   1.091464910000  -0.279811860000 AA   -1.598602401130   2.062569754473  -0.528767781805 Bohr
[INPUT] ---------------- BASIS SET ---------------- 
[INPUT] l, kappa, [nprim/nctr], expnt,             c_1 c_2 ...
[INPUT] H
[INPUT] 0    0    [8    /1   ]  23.843185         0.0041149
                                10.212443         0.0104644
                                4.374164          0.0280111
                                1.873529          0.0758862
                                0.802465          0.1821062
                                0.343709          0.3485214
                                0.147217          0.3782313
                                0.063055          0.1164241
[INPUT] 0    0    [1    /1   ]  0.081856             1
[INPUT] 0    0    [1    /1   ]  0.233254             1
[INPUT] 0    0    [1    /1   ]  0.664673             1
[INPUT] 1    0    [1    /1   ]  0.284469             1
[INPUT] 1    0    [1    /1   ]  0.847159             1
[INPUT] 1    0    [1    /1   ]  2.522868             1
[INPUT] 2    0    [1    /1   ]  0.665279             1
[INPUT] 2    0    [1    /1   ]  2.048739             1
[INPUT] 3    0    [1    /1   ]  1.42146              1
[INPUT] N
[INPUT] 0    0    [9    /1   ]  42.693822         -0.0009357
                                19.963207         0.0063295
                                9.3345971         0.0105038
                                4.9278187         -0.1653735
                                2.04092           -0.0005352
                                0.96708           0.2452063
                                0.476131          0.4582128
                                0.211443          0.3641224
                                0.098869          0.0620406
[INPUT] 0    0    [1    /1   ]  1.625001             1
[INPUT] 0    0    [1    /1   ]  0.310826             1
[INPUT] 0    0    [1    /1   ]  0.135764             1
[INPUT] 1    0    [9    /1   ]  18.925871         0.0073505
                                9.225603          0.0292844
                                4.581431          0.0652168
                                2.300164          0.1405153
                                1.154825          0.2328188
                                0.582039          0.2989556
                                0.290535          0.2802507
                                0.145867          0.1527995
                                0.073234          0.0355475
[INPUT] 1    0    [1    /1   ]  1.02075              1
[INPUT] 1    0    [1    /1   ]  0.413103             1
[INPUT] 1    0    [1    /1   ]  0.140736             1
[INPUT] 2    0    [1    /1   ]  3.028459             1
[INPUT] 2    0    [1    /1   ]  1.009895             1
[INPUT] 2    0    [1    /1   ]  0.346233             1
[INPUT] 3    0    [1    /1   ]  2.024747             1
[INPUT] 3    0    [1    /1   ]  0.691129             1
[INPUT] 4    0    [1    /1   ]  1.357512             1

nuclear repulsion = 26.463770489533
number of shells = 68
number of NR pGTOs = 320
number of NR cGTOs = 228
basis = ccecp-ccpvqz
ecp = ccecp
CPU time:         6.51


******** <class 'pyscf.scf.hf.RHF'> ********
method = RHF
initial guess = minao
damping factor = 0
level_shift factor = 0
DIIS = <class 'pyscf.scf.diis.CDIIS'>
diis_start_cycle = 1
diis_space = 8
SCF conv_tol = 1e-09
SCF conv_tol_grad = None
SCF max_cycles = 200
direct_scf = True
direct_scf_tol = 1e-13
chkfile to save SCF result = pyscf.chk
max_memory 506323 MB (current use 106 MB)
Set gradient conv threshold to 3.16228e-05
E1 = -84.79430322713544  E_coul = 36.878899759321534
init E= -21.4516329782809
cond(S) = 68981.59369351706
    CPU time for initialize scf    277.10 sec, wall time      2.42 sec
  HOMO = -0.296711076277513  LUMO = 0.0668104912606437
  mo_energy =
[-1.64813054 -1.17483891 -0.67331387 -0.64897773 -0.58066603 -0.30662805
 -0.29671108  0.06681049  0.09562986  0.14784226  0.15314218  0.24214403
  0.33391349  0.36231558  0.39227608  0.41368921  0.41991839  0.43243441
  0.45306823  0.48183864  0.49378297  0.51435854  0.54131139  0.5526367
  0.60358783  0.64405964  0.80603662  0.81445479  0.87459075  0.90417622
  0.97019146  0.97419956  1.03110408  1.06017768  1.09987566  1.11506681
  1.13526458  1.17415997  1.19738973  1.2152559   1.23043305  1.29326571
  1.30194188  1.35603193  1.47440863  1.48324222  1.4909341   1.54061625
  1.63335538  1.82460658  1.91689785  2.06406989  2.07543131  2.20953369
  2.25056775  2.26009415  2.28139958  2.29093298  2.349022    2.38413634
  2.40611973  2.42525091  2.43102396  2.45078212  2.48027938  2.50966789
  2.54020575  2.55356058  2.57064953  2.58654451  2.59103532  2.66824188
  2.69790284  2.72404094  2.7300919   2.76937518  2.80728127  2.85569187
  2.93088861  2.95724534  2.96530267  2.97259781  3.01743022  3.0913593
  3.12379976  3.14828114  3.22455661  3.28211952  3.30821887  3.31496367
  3.50940975  3.56277355  3.6572749   3.66979096  3.78808008  3.80352901
  3.8441017   3.87961404  3.93795883  4.0309434   4.04543104  4.1895959
  4.21340257  4.29717305  4.32782871  4.35028153  4.39074612  4.3921241
  4.63955232  4.66680315  4.75087292  4.89747946  4.94725885  5.51019841
  6.04024484  6.06852082  6.08003896  6.16247919  6.22777899  6.2536617
  6.31483185  6.34157342  6.35418903  6.38332571  6.4739002   6.57923601
  6.61157079  6.68083726  6.77170008  6.80479023  6.84123754  6.88567866
  6.95883583  7.030328    7.03764471  7.05447409  7.1131659   7.15662008
  7.31063393  7.33368541  7.34933033  7.44645095  7.45975321  7.50831974
  7.54798646  7.56254405  7.59287614  7.60105366  7.6418121   7.74639879
  7.7712602   7.87937477  7.91454711  7.92063571  7.93443616  7.9552196
  7.96565531  8.02773446  8.04586591  8.11364286  8.13479325  8.17855994
  8.19527087  8.22359461  8.27628898  8.31624128  8.35917974  8.37842992
  8.39311118  8.43413001  8.49273694  8.50263099  8.57588425  8.61475
  8.63060606  8.70245854  8.77919539  8.87605224  8.92553231  8.93557618
  9.00600254  9.00970689  9.13334483  9.14588568  9.23541997  9.26153693
  9.26383244  9.37380021  9.38397894  9.39807822  9.54888204  9.59741477
  9.61349149  9.67477324  9.71489053  9.80610136  9.92725576  9.94133825
 10.08257079 10.13148837 10.26309289 10.37967589 10.39930947 10.44862816
 10.51681193 10.54484225 10.56280326 11.14254095 11.17952056 11.3310691
 11.67051881 11.94972137 12.04180614 12.06111651 12.11801624 12.14052346
 12.17881709 12.3200389  12.38737355 12.64832376 12.68956499 12.7240066
 12.78429494 13.09589171 14.74393861 14.75893128 19.64591447 20.05343324]
E1 = -86.36398621868804  E_coul = 38.21702735039421
cycle= 1 E= -21.6831883787608  delta_E= -0.232  |g|= 0.316  |ddm|= 4.12
    CPU time for cycle= 1     46.44 sec, wall time      0.46 sec
  HOMO = -0.388563686472366  LUMO = 0.0984317555294161
  mo_energy =
[-1.24987683 -1.00997732 -0.67294321 -0.66232078 -0.59547105 -0.39795728
 -0.38856369  0.09843176  0.12982673  0.16554843  0.16789659  0.35615806
  0.37577185  0.39770982  0.40544455  0.45959859  0.47351893  0.48687684
  0.50942237  0.54839643  0.5487129   0.56951254  0.57621797  0.61161553
  0.61765278  0.68784439  0.82069371  0.83648428  0.8894864   0.90564064
  0.98690577  0.98715635  1.06638856  1.08570718  1.1306071   1.14904435
  1.16635545  1.20366701  1.25363636  1.25836865  1.2668077   1.34997937
  1.35793664  1.40264045  1.53852218  1.54560958  1.55609051  1.59533103
  1.68255905  1.88209255  1.95924227  2.1438696   2.15862116  2.24025098
  2.28727732  2.30270598  2.30528008  2.3119093   2.38275123  2.41549521
  2.44626565  2.45340006  2.47093185  2.47558793  2.49913924  2.52986716
  2.56432317  2.57515263  2.62014595  2.62320932  2.62690557  2.7184867
  2.73811264  2.76997219  2.79124116  2.81029983  2.83722326  2.93292039
  2.97693577  2.99584362  3.02305243  3.02356667  3.08052475  3.14487447
  3.17641374  3.20408948  3.28293694  3.33462129  3.37957085  3.38847361
  3.55955715  3.6284048   3.73969848  3.74815159  3.84244164  3.85145043
  3.93321902  3.95296069  4.00405085  4.10768468  4.11880761  4.27870894
  4.29724601  4.37690039  4.42541927  4.42566884  4.46467285  4.46648346
  4.7145075   4.75252849  4.82813316  4.97925189  5.03426802  5.61514939
  6.09667531  6.11794003  6.13026078  6.22644556  6.27195329  6.29824737
  6.3435359   6.36588483  6.40207748  6.4197828   6.53206858  6.65205945
  6.71796353  6.76824755  6.86278116  6.87719417  6.89540469  6.9678853
  7.02034608  7.09563344  7.10839546  7.12601283  7.18749151  7.24379043
  7.37054793  7.40840562  7.42640079  7.51459371  7.51817176  7.5519569
  7.58649536  7.60959432  7.62253604  7.66283659  7.70550172  7.78362917
  7.84943537  7.93178972  7.95512281  7.9601135   7.97776833  7.98146174
  8.03225727  8.05318832  8.09400289  8.13757373  8.15408257  8.20311652
  8.20834375  8.25533597  8.32833321  8.38033941  8.39965897  8.41238548
  8.44601271  8.45421294  8.55075132  8.551794    8.62227979  8.68198714
  8.6896806   8.76287055  8.85605358  8.96410516  8.99279019  8.99517008
  9.06421068  9.09183815  9.20869228  9.24933656  9.29768342  9.34692168
  9.35387728  9.46228333  9.47250301  9.52774712  9.67491677  9.70256005
  9.715186    9.76028885  9.80858957  9.93691557 10.04605287 10.04948892
 10.17972653 10.24880692 10.38526419 10.49895861 10.50886657 10.57098661
 10.62594761 10.6610077  10.66614425 11.263168   11.28244624 11.43671615
 11.79251838 12.03773254 12.14029589 12.15748119 12.22138304 12.23759888
 12.28911359 12.42859458 12.49465052 12.76714973 12.81084701 12.85025523
 12.9055508  13.23139002 14.84506311 14.85893509 19.81049384 20.22068688]
E1 = -86.10437394481848  E_coul = 37.934274768521455
cycle= 2 E= -21.706328686764  delta_E= -0.0231  |g|= 0.0854  |ddm|= 0.589
    CPU time for cycle= 2     98.56 sec, wall time      0.78 sec
  HOMO = -0.415178658184074  LUMO = 0.102960399223833
  mo_energy =
[-1.26836953 -1.02042094 -0.68635657 -0.67557214 -0.6169039  -0.4236834
 -0.41517866  0.1029604   0.13168803  0.16723338  0.16766581  0.34973055
  0.37039543  0.39232534  0.41036857  0.45639741  0.46964838  0.48659711
  0.50631719  0.53721087  0.54732534  0.56478652  0.57617775  0.60182149
  0.61806724  0.67971525  0.82337388  0.8337837   0.88827361  0.91245748
  0.98675095  0.98891174  1.06045214  1.0853602   1.12860353  1.14594651
  1.16422971  1.20274772  1.24481552  1.25032814  1.26165763  1.34064135
  1.35202135  1.39755718  1.52808766  1.53875337  1.54802188  1.58780792
  1.67908365  1.87459625  1.95579708  2.13324804  2.13941843  2.24075282
  2.29608557  2.29886989  2.30052727  2.31751739  2.38136744  2.41730373
  2.44923042  2.45238803  2.46913116  2.47628189  2.50350191  2.53244811
  2.5672882   2.5782262   2.61244567  2.62369422  2.62510569  2.71146673
  2.73362778  2.76270467  2.78169812  2.805685    2.83921856  2.92014567
  2.97255137  2.99171577  3.01341395  3.02056515  3.07187365  3.13780116
  3.16903896  3.19373228  3.27557004  3.32777968  3.36287223  3.37634737
  3.5587213   3.61791359  3.72400392  3.73585399  3.83624518  3.85074449
  3.91680351  3.94092504  3.99244537  4.09562473  4.10985144  4.26175366
  4.2833409   4.3655448   4.40595047  4.41332299  4.45521521  4.45765804
  4.70411436  4.73838643  4.81755112  4.96783887  5.02065233  5.59427322
  6.09518715  6.12206273  6.12952463  6.22515946  6.28020362  6.2996373
  6.35152322  6.37808282  6.40173711  6.43017154  6.53263655  6.6511239
  6.6972339   6.75682864  6.85043854  6.87645948  6.89924532  6.96191394
  7.01968163  7.09413279  7.1098455   7.11481567  7.1817092   7.23392044
  7.36783356  7.40457267  7.4168141   7.51298803  7.51682035  7.55341735
  7.59567154  7.61277141  7.62652271  7.65731449  7.70000906  7.78434228
  7.83963246  7.93114729  7.95837681  7.96479294  7.97971016  7.98625638
  8.02534962  8.06545861  8.09573722  8.14094576  8.16499998  8.20792467
  8.220469    8.26045316  8.3241633   8.37535157  8.40375117  8.41698366
  8.44982705  8.46121374  8.55362293  8.55492194  8.62144418  8.68122435
  8.68619812  8.76597974  8.84791324  8.95561496  8.99255186  8.99610035
  9.06600125  9.08190312  9.20166182  9.2351416   9.29950912  9.33867986
  9.34291703  9.45447025  9.45637713  9.50201514  9.65111831  9.69003717
  9.69196411  9.75067513  9.79616804  9.91202317 10.02140426 10.02872066
 10.16463504 10.22533089 10.35890948 10.47937457 10.49065349 10.54413951
 10.61351831 10.63515073 10.6526863  11.23945825 11.27055058 11.41856198
 11.76590876 12.02585027 12.12623939 12.14773962 12.2031137  12.22700236
 12.26771172 12.40780684 12.4751166  12.74520447 12.78625206 12.82427389
 12.88263825 13.19489359 14.83223526 14.84676109 19.76355044 20.1720989 ]
E1 = -86.30654744598408  E_coul = 38.13469700637125
cycle= 3 E= -21.7080799500799  delta_E= -0.00175  |g|= 0.0313  |ddm|= 0.151
    CPU time for cycle= 3     86.88 sec, wall time      0.69 sec
  HOMO = -0.405578816613095  LUMO = 0.10406975591133
  mo_energy =
[-1.25466886 -1.00998725 -0.67678791 -0.66614779 -0.60531093 -0.41420276
 -0.40557882  0.10406976  0.13312176  0.16807709  0.16910448  0.35607158
  0.37331777  0.39524386  0.41261865  0.45974636  0.47387598  0.49130062
  0.50977795  0.541781    0.55171814  0.56854551  0.57998311  0.60865369
  0.62095676  0.68499196  0.8251437   0.8363945   0.89074291  0.9137166
  0.98898997  0.99074077  1.06524223  1.08972853  1.1332021   1.14995662
  1.16792947  1.2069517   1.25081098  1.25544266  1.2652169   1.34572138
  1.35791085  1.40241953  1.53252241  1.54539965  1.55356391  1.59250109
  1.6836206   1.87957012  1.96300222  2.13928075  2.14662921  2.2454774
  2.30235875  2.30310303  2.30474014  2.32156779  2.38604141  2.42184703
  2.45414866  2.45744061  2.47591451  2.48098007  2.50777765  2.53649564
  2.57136082  2.58255819  2.61969767  2.63001738  2.63159522  2.71822128
  2.73963356  2.76898624  2.78871277  2.81108811  2.84352149  2.92855165
  2.9781955   2.99685362  3.02129076  3.02673046  3.07909864  3.14491437
  3.17541364  3.20095581  3.28201058  3.33386126  3.37083854  3.38405453
  3.56554379  3.62547759  3.73338118  3.74401115  3.84419603  3.85764621
  3.92457329  3.95002992  4.00106012  4.10301935  4.11757913  4.27098676
  4.29146998  4.37431285  4.41473275  4.42201138  4.46494147  4.46721332
  4.7132761   4.74833806  4.82732557  4.97806163  5.03098541  5.60680373
  6.10390818  6.12908922  6.13754505  6.2329184   6.28648296  6.30667836
  6.35694895  6.38299173  6.41025079  6.43636339  6.5408326   6.66044688
  6.70976066  6.76868246  6.86150623  6.8870335   6.90796791  6.97275869
  7.02876207  7.10378345  7.11877459  7.12572137  7.19087412  7.24463952
  7.37726314  7.41442743  7.42677702  7.52242766  7.52562459  7.56127057
  7.60246451  7.6220538   7.63462415  7.66621121  7.70988415  7.79151695
  7.85042569  7.93988211  7.96637997  7.97244396  7.98863414  7.99313882
  8.03540542  8.07253197  8.10443187  8.14881648  8.17111054  8.21489728
  8.22652177  8.26803624  8.33329022  8.3856531   8.41196546  8.42475815
  8.45958801  8.46645156  8.56260078  8.56346226  8.63094421  8.6914286
  8.69611343  8.77524426  8.85876099  8.96720272  9.00329929  9.00588902
  9.07617558  9.09300326  9.21326381  9.24773013  9.3100872   9.3495432
  9.35390807  9.46639904  9.46901685  9.51478469  9.66512109  9.70205369
  9.70647011  9.76268415  9.80935066  9.92669027 10.03658194 10.04025924
 10.17805243 10.23799685 10.37305473 10.49381718 10.50456988 10.56006684
 10.62804003 10.650446   10.66658367 11.25573263 11.28425237 11.43391261
 11.78253792 12.03992805 12.13987358 12.16090839 12.21744886 12.24029199
 12.28252243 12.42230605 12.48917977 12.7606237  12.80235057 12.84043799
 12.89787062 13.21352176 14.84694983 14.8612988  19.78645906 20.19486942]
E1 = -86.23388640670782  E_coul = 38.061756807450585
cycle= 4 E= -21.7083591097243  delta_E= -0.000279  |g|= 0.00816  |ddm|= 0.0616
    CPU time for cycle= 4     99.09 sec, wall time      0.79 sec
  HOMO = -0.40789583490309  LUMO = 0.103655680237078
  mo_energy =
[-1.2574863  -1.01176195 -0.67896769 -0.66813757 -0.60800294 -0.41635335
 -0.40789583  0.10365568  0.13288738  0.16783289  0.16890176  0.35539956
  0.3729248   0.39481062  0.41166398  0.4588666   0.47347808  0.49011156
  0.50942084  0.54156507  0.55095459  0.56785375  0.57919794  0.60762333
  0.62034626  0.68419293  0.82450338  0.83599056  0.8905295   0.9131439
  0.98875122  0.99034439  1.06430471  1.08867619  1.13219546  1.14912533
  1.16702689  1.20581302  1.24964605  1.25443145  1.26454232  1.34488168
  1.35667898  1.40137569  1.5318823   1.54423855  1.55290604  1.59170158
  1.68306535  1.87887959  1.96119893  2.13824064  2.1455798   2.24471447
  2.30131253  2.30195798  2.30397485  2.32069585  2.38519198  2.42083154
  2.45321039  2.45683825  2.4741781   2.48041835  2.50705721  2.5357284
  2.57065644  2.5817477   2.61841875  2.62879407  2.63002201  2.71693951
  2.73860412  2.76796373  2.78750777  2.81015515  2.84261592  2.92698093
  2.97709896  2.99604297  3.01975539  3.02531028  3.07754817  3.14330224
  3.17411883  3.1996263   3.28066836  3.33267024  3.36958972  3.38250002
  3.56390483  3.62399906  3.73137121  3.7424497   3.84265298  3.85645235
  3.92306922  3.94817698  3.99953207  4.10172816  4.11621119  4.26940391
  4.28991215  4.37256964  4.41324029  4.42049262  4.46311118  4.46521357
  4.7115905   4.74653212  4.82549185  4.9762005   5.02915957  5.60427941
  6.10239675  6.12767781  6.13645801  6.23150216  6.28508642  6.30581712
  6.35618387  6.38213256  6.40891827  6.43522835  6.53951198  6.65843459
  6.70751892  6.76673051  6.85962877  6.8852087   6.90661057  6.97103208
  7.02736174  7.10252374  7.11732513  7.12389561  7.18933541  7.24301391
  7.37584624  7.41266428  7.42513331  7.52115481  7.52414795  7.56021302
  7.60156748  7.62044213  7.63365543  7.66454314  7.70815612  7.79044724
  7.84887477  7.93836338  7.96526227  7.97138126  7.98703887  7.99232212
  8.03375084  8.07133535  8.10322341  8.14796609  8.17030614  8.21446316
  8.22570772  8.26743635  8.33193577  8.38418923  8.41093482  8.42345775
  8.45790481  8.46551843  8.56128664  8.56187408  8.62991807  8.68982115
  8.69460314  8.77371375  8.85686892  8.96518172  9.00157272  9.00456751
  9.07461583  9.09147233  9.21139503  9.24578127  9.30903272  9.34785201
  9.35226132  9.46429329  9.46660547  9.51250999  9.66239923  9.6998646
  9.70373309  9.76038217  9.80691135  9.92385095 10.03359858 10.03831134
 10.17576301 10.23585847 10.37028885 10.4911482  10.50198598 10.55711438
 10.62541    10.64754649 10.66384537 11.25278206 11.28162086 11.43128488
 11.77944544 12.03732435 12.1372935  12.15845169 12.21457989 12.23793493
 12.27973584 12.41962135 12.48657414 12.7576416  12.79932272 12.83749044
 12.89497893 13.20970969 14.84445353 14.85879815 19.78180314 20.19019288]
E1 = -86.25038929180769  E_coul = 38.07822887979191
cycle= 5 E= -21.7083899224828  delta_E= -3.08e-05  |g|= 0.00203  |ddm|= 0.0172
    CPU time for cycle= 5     78.11 sec, wall time      0.64 sec
  HOMO = -0.40790492864978  LUMO = 0.103690010009201
  mo_energy =
[-1.25720808 -1.01157258 -0.67871924 -0.66796651 -0.6078927  -0.41630528
 -0.40790493  0.10369001  0.13284654  0.16785856  0.16891259  0.35552905
  0.37294591  0.3947818   0.41170151  0.4588738   0.47344076  0.49011445
  0.50953454  0.54160875  0.55104722  0.56799128  0.57925774  0.60771562
  0.62036506  0.68429655  0.82455618  0.83595271  0.89045539  0.91317367
  0.98871756  0.99036935  1.06433619  1.08873395  1.13220149  1.14919944
  1.16707586  1.20583665  1.24971845  1.25447796  1.26453851  1.34497454
  1.35673995  1.40144208  1.5319695   1.54429754  1.5529228   1.59176765
  1.68304953  1.87892003  1.96131398  2.13831746  2.1456697   2.24466258
  2.30132061  2.30210073  2.30391297  2.32069983  2.38518929  2.42087028
  2.45324523  2.4567896   2.47433236  2.48035053  2.50707634  2.5357559
  2.57068539  2.58176034  2.61846594  2.62887549  2.63011466  2.71697385
  2.73859009  2.76798913  2.78754844  2.81018629  2.84271808  2.92708831
  2.97719889  2.99603653  3.01983735  3.02542744  3.07766327  3.14340134
  3.17415589  3.19965267  3.28075463  3.33270885  3.36955563  3.38259251
  3.5640304   3.6240518   3.73151175  3.74253202  3.84270461  3.85648771
  3.92315633  3.94827902  3.99958699  4.10177214  4.11629591  4.26947884
  4.29002066  4.37270438  4.41328052  4.42051759  4.46320849  4.4653783
  4.711698    4.74663966  4.82558919  4.976289    5.02928061  5.60443591
  6.1024508   6.12779331  6.13643347  6.2315926   6.28521997  6.30574583
  6.35615107  6.38215497  6.40891629  6.43526547  6.53952372  6.65864241
  6.70765177  6.76680478  6.85971551  6.88531261  6.90670945  6.97108415
  7.02738816  7.10247074  7.11742379  7.12394755  7.18942115  7.2430797
  7.3758725   7.41279998  7.42522143  7.52114607  7.52423977  7.56022319
  7.60160407  7.6205752   7.63362267  7.66466386  7.70821948  7.79052576
  7.84890036  7.93846061  7.96528793  7.97139963  7.98717079  7.99236053
  8.03383477  8.07145877  8.1032781   8.1479056   8.17036104  8.21433984
  8.2257274   8.26735393  8.33196058  8.38416674  8.41093314  8.42358615
  8.45804018  8.46565187  8.56132489  8.56201673  8.62982288  8.68987786
  8.69463072  8.77383197  8.85694554  8.96529712  9.00167525  9.00461637
  9.07471765  9.09147901  9.21149982  9.24586073  9.30898296  9.34792915
  9.35233395  9.46447384  9.46679157  9.51262315  9.66262333  9.70001078
  9.70388449  9.76059127  9.80708756  9.92403081 10.03379033 10.03836435
 10.17587883 10.23592259 10.37036705 10.49134296 10.50209154 10.55725599
 10.62559843 10.64766803 10.66408673 11.2529447  11.28187163 11.43141791
 11.77963065 12.03756757 12.13751194 12.15860862 12.21474595 12.23806662
 12.27985489 12.41977147 12.48672367 12.7578027  12.79943066 12.83761606
 12.89512083 13.2099424  14.84457259 14.85892967 19.78219702 20.1905808 ]
E1 = -86.2487009369237  E_coul = 38.07653688054076
cycle= 6 E= -21.70839356685  delta_E= -3.64e-06  |g|= 0.000577  |ddm|= 0.00658
    CPU time for cycle= 6    100.93 sec, wall time      0.79 sec
  HOMO = -0.408008816917791  LUMO = 0.103673278940485
  mo_energy =
[-1.25723496 -1.01158612 -0.67873182 -0.66798005 -0.60788633 -0.4163841
 -0.40800882  0.10367328  0.13282873  0.16785013  0.1689121   0.35552147
  0.37293483  0.39477044  0.41167777  0.45883081  0.47344096  0.49005357
  0.50952529  0.54162126  0.55103515  0.56797516  0.57925481  0.60771107
  0.62035589  0.68429298  0.82453214  0.83594155  0.89045431  0.9131418
  0.98871494  0.99035029  1.06431014  1.08872237  1.13217676  1.14918418
  1.16705178  1.20581925  1.24970193  1.2544619   1.26452323  1.34494965
  1.35671763  1.40142894  1.53193832  1.54428034  1.5529188   1.59174268
  1.6830295   1.87890428  1.96129427  2.13828001  2.14562705  2.24465344
  2.30130061  2.30205905  2.30389334  2.3206738   2.38515564  2.42083669
  2.4532177   2.45678475  2.47431382  2.48034293  2.50704905  2.53572274
  2.57064593  2.58172869  2.6184462   2.62884942  2.63010386  2.71695912
  2.73856629  2.76797978  2.78752728  2.81015981  2.84268096  2.92706708
  2.97716947  2.99601223  3.01982102  3.02539821  3.07762912  3.14337426
  3.17411711  3.19962752  3.28072045  3.33267639  3.36952162  3.38254797
  3.5640075   3.62401879  3.73147205  3.74249759  3.84268765  3.85647412
  3.92310755  3.94824564  3.99955738  4.10172586  4.11626369  4.26945075
  4.28996524  4.37267693  4.41323439  4.42049705  4.46318817  4.46536131
  4.71168505  4.74659689  4.82555988  4.97626986  5.02924754  5.60440047
  6.10242325  6.12774699  6.13642647  6.23155419  6.2851802   6.30573442
  6.35611824  6.38212328  6.40891151  6.43525098  6.53951236  6.65859679
  6.70760421  6.76677792  6.85967825  6.88528359  6.90666123  6.9710543
  7.02735592  7.10245429  7.11737388  7.12389831  7.18936762  7.24305539
  7.37583839  7.4127614   7.42517203  7.52113786  7.52418856  7.56018093
  7.60156448  7.62055413  7.63360397  7.66460737  7.70818925  7.7904673
  7.84886872  7.93842447  7.96525241  7.9713731   7.9871307   7.99233052
  8.03381613  8.07143648  8.10326683  8.14788103  8.17031559  8.21432718
  8.22568732  8.26733875  8.33193416  8.38414815  8.4108972   8.42355184
  8.45800365  8.465594    8.56130621  8.56196083  8.62980789  8.68984159
  8.69458233  8.77378734  8.85689647  8.96524989  9.00162539  9.00457752
  9.07467119  9.09145061  9.21145748  9.24584226  9.30897844  9.34786505
  9.35228218  9.46442927  9.46674207  9.51255188  9.66257322  9.69996643
  9.70383838  9.76054802  9.80706756  9.92399885 10.03373576 10.03830196
 10.1758406  10.23584686 10.37029707 10.49129999 10.5020496  10.55719822
 10.62558524 10.64764113 10.6640398  11.25293946 11.28182002 11.43136431
 11.77956312 12.03755465 12.13748489 12.15857686 12.2147007  12.23804261
 12.27982491 12.41972392 12.48667279 12.75773582 12.79936826 12.83756389
 12.89505901 13.20987485 14.84453225 14.85888499 19.78215128 20.1905326 ]
E1 = -86.24887676518235  E_coul = 38.076712355719316
cycle= 7 E= -21.70839391993  delta_E= -3.53e-07  |g|= 0.000102  |ddm|= 0.00255
    CPU time for cycle= 7     75.97 sec, wall time      0.72 sec
  HOMO = -0.408007788702249  LUMO = 0.103676216284617
  mo_energy =
[-1.25722257 -1.01157425 -0.67871275 -0.6679669  -0.60787316 -0.41638008
 -0.40800779  0.10367622  0.13282783  0.16785275  0.16891276  0.35552823
  0.37293632  0.39477277  0.41168265  0.45882845  0.47343989  0.49005396
  0.50953368  0.54162117  0.55104197  0.56798392  0.57926036  0.60771819
  0.62035801  0.68430025  0.82453695  0.83594037  0.8904532   0.91314909
  0.98871553  0.99035444  1.06431285  1.08872607  1.13218048  1.14919048
  1.16705637  1.20582253  1.24970575  1.25446539  1.26452712  1.34495533
  1.35672462  1.40143248  1.5319457   1.54428741  1.55292424  1.5917498
  1.68303226  1.87890864  1.96130197  2.13828517  2.14563051  2.24465455
  2.30130481  2.30207126  2.30389617  2.32067975  2.3851603   2.42084322
  2.45322488  2.45678584  2.47432484  2.48034153  2.50705601  2.53572913
  2.57065297  2.58173435  2.61845016  2.62885575  2.63010959  2.7169648
  2.73857021  2.76798349  2.78753404  2.81016557  2.84269138  2.92707326
  2.97717751  2.99601728  3.01982647  3.02540923  3.07763622  3.14338093
  3.17412342  3.19963384  3.28072782  3.33268096  3.36952524  3.38255584
  3.56401608  3.62402694  3.73148062  3.74250497  3.84269459  3.85648204
  3.9231174   3.94825559  3.99956294  4.10173362  4.11627413  4.26945679
  4.28997542  4.37268659  4.41324376  4.42050209  4.46319658  4.46537186
  4.71169407  4.7466088   4.82556931  4.97627872  5.02925872  5.60441361
  6.1024314   6.12775943  6.13643033  6.23156455  6.28519355  6.3057363
  6.35612451  6.38213242  6.40891624  6.43526175  6.53951931  6.65861226
  6.70761509  6.76678574  6.85968883  6.88529616  6.90667448  6.9710636
  7.02736436  7.10245881  7.11738572  7.12390705  7.18937846  7.24306243
  7.37584446  7.4127733   7.42518161  7.52114334  7.52419806  7.56018805
  7.60157331  7.62056521  7.63360715  7.66461967  7.70819703  7.79047718
  7.84887616  7.93843499  7.96526044  7.97137822  7.98714266  7.99233806
  8.03382441  8.07144766  8.10327465  8.14788356  8.17032465  8.2143264
  8.2256949   8.26734071  8.33193928  8.38415135  8.41090379  8.42356249
  8.45801404  8.46560896  8.56131448  8.56197484  8.62980878  8.68985099
  8.69459089  8.77380029  8.85690642  8.96526101  9.00163527  9.00458479
  9.07468303  9.09145584  9.21146699  9.2458509   9.30898199  9.34787672
  9.35229134  9.46444261  9.46675622  9.51256509  9.66258922  9.69997888
  9.70385118  9.76056441  9.80708069  9.92401404 10.03374865 10.0383135
 10.17585112 10.23585698 10.37030955 10.49131581 10.50206271 10.55721077
 10.62559941 10.64765312 10.66405911 11.2529515  11.28183799 11.43137605
 11.77957658 12.0375696  12.1375008  12.15859346 12.21471599 12.23805735
 12.2798368  12.41973644 12.48668614 12.75775156 12.799381   12.83757579
 12.89507339 13.20988969 14.84454605 14.85889963 19.78217461 20.19055626]
E1 = -86.24887474947649  E_coul = 38.07671033181059
cycle= 8 E= -21.7083939281329  delta_E= -8.2e-09  |g|= 1.56e-05  |ddm|= 0.000458
    CPU time for cycle= 8    102.56 sec, wall time      0.92 sec
  HOMO = -0.408007600824942  LUMO = 0.1036764477339
  mo_energy =
[-1.25722049 -1.01157319 -0.67871139 -0.66796591 -0.6078717  -0.41637984
 -0.4080076   0.10367645  0.13282798  0.16785291  0.16891297  0.35552871
  0.37293694  0.39477359  0.41168328  0.45882822  0.47344047  0.49005396
  0.50953392  0.5416215   0.55104252  0.56798446  0.57926108  0.60771906
  0.62035842  0.68430094  0.82453741  0.83594092  0.8904536   0.91314933
  0.9887159   0.99035477  1.06431332  1.08872685  1.1321809   1.14919103
  1.16705674  1.20582304  1.24970651  1.25446602  1.26452744  1.34495593
  1.35672541  1.40143314  1.53194608  1.54428818  1.55292481  1.59175037
  1.68303269  1.87890924  1.96130338  2.13828572  2.14563107  2.24465517
  2.30130564  2.30207168  2.30389675  2.32068011  2.38516075  2.42084383
  2.45322552  2.4567866   2.47432573  2.48034216  2.5070563   2.53572973
  2.57065326  2.58173491  2.61845072  2.62885645  2.63011035  2.71696564
  2.73857084  2.7679842   2.78753475  2.81016614  2.84269183  2.92707409
  2.97717823  2.99601802  3.01982753  3.02540996  3.07763706  3.14338221
  3.1741243   3.19963506  3.2807287   3.33268189  3.3695261   3.38255693
  3.56401721  3.62402782  3.73148216  3.74250609  3.84269543  3.85648259
  3.92311833  3.94825655  3.99956405  4.10173447  4.11627462  4.26945803
  4.28997628  4.37268763  4.41324475  4.42050339  4.46319739  4.46537309
  4.71169524  4.74660959  4.82557024  4.97627975  5.02925947  5.60441458
  6.10243207  6.12775997  6.13643129  6.2315652   6.28519427  6.30573714
  6.35612499  6.38213281  6.40891729  6.43526207  6.53952011  6.65861294
  6.70761572  6.76678647  6.85968934  6.88529663  6.90667435  6.9710642
  7.02736489  7.10245929  7.1173857   7.12390772  7.189379    7.24306338
  7.37584482  7.41277378  7.42518228  7.52114419  7.5241985   7.56018826
  7.60157329  7.62056587  7.6336074   7.6646202   7.70819781  7.79047744
  7.84887683  7.93843544  7.9652605   7.97137852  7.98714323  7.99233831
  8.03382531  8.07144796  8.10327541  8.14788372  8.17032474  8.21432693
  8.22569485  8.26734118  8.33194014  8.38415203  8.41090416  8.42356283
  8.45801478  8.46560885  8.56131485  8.561975    8.62980946  8.68985149
  8.69459118  8.77380047  8.856907    8.96526168  9.00163562  9.00458514
  9.07468315  9.09145689  9.21146758  9.24585193  9.30898265  9.34787706
  9.35229199  9.46444313  9.46675675  9.51256606  9.66259002  9.69997948
  9.70385184  9.76056503  9.80708142  9.9240148  10.03374956 10.03831418
 10.1758521  10.23585778 10.37031006 10.4913164  10.50206332 10.55721123
 10.62560011 10.64765398 10.66405921 11.25295246 11.28183835 11.43137625
 11.77957691 12.03757026 12.13750154 12.15859391 12.21471646 12.23805774
 12.27983775 12.41973716 12.48668662 12.75775192 12.7993813  12.83757616
 12.89507388 13.20989003 14.84454607 14.85889957 19.78217478 20.19055647]
E1 = -86.24888197311418  E_coul = 38.076717555280844
cycle= 9 E= -21.7083939283004  delta_E= -1.67e-10  |g|= 2.88e-06  |ddm|= 0.000112
    CPU time for cycle= 9     95.48 sec, wall time      0.82 sec
  HOMO = -0.408006723163095  LUMO = 0.103676635712215
  mo_energy =
[-1.25721931 -1.01157204 -0.67871048 -0.66796504 -0.60787079 -0.41637905
 -0.40800672  0.10367664  0.13282818  0.16785303  0.16891309  0.35552927
  0.37293714  0.39477383  0.41168357  0.4588285   0.47344078  0.49005437
  0.50953432  0.54162178  0.55104292  0.56798484  0.57926143  0.60771962
  0.6203587   0.68430138  0.82453762  0.83594108  0.89045378  0.91314962
  0.98871611  0.99035499  1.06431368  1.08872724  1.13218134  1.14919144
  1.16705714  1.20582348  1.249707    1.25446641  1.26452784  1.34495635
  1.35672598  1.4014336   1.53194653  1.54428876  1.55292537  1.59175085
  1.68303309  1.87890965  1.96130396  2.13828628  2.14563163  2.24465562
  2.30130619  2.30207213  2.30389728  2.32068058  2.38516123  2.4208443
  2.45322598  2.45678701  2.47432647  2.4803425   2.50705675  2.53573013
  2.57065372  2.58173534  2.61845133  2.62885698  2.63011098  2.71696628
  2.7385714   2.76798473  2.78753537  2.81016665  2.84269235  2.92707483
  2.97717878  2.99601851  3.01982817  3.02541065  3.0776377   3.14338282
  3.17412487  3.19963564  3.28072931  3.33268243  3.36952674  3.38255763
  3.56401788  3.62402852  3.73148293  3.74250686  3.84269616  3.85648334
  3.92311907  3.94825739  3.99956467  4.10173512  4.11627545  4.26945877
  4.28997702  4.37268843  4.41324556  4.42050411  4.46319829  4.46537397
  4.71169603  4.74661048  4.82557111  4.97628064  5.02926038  5.60441577
  6.10243285  6.12776069  6.13643196  6.231566    6.28519495  6.30573772
  6.35612554  6.38213338  6.40891798  6.43526287  6.53952087  6.65861386
  6.70761693  6.7667875   6.85969041  6.8852976   6.90667525  6.97106519
  7.02736572  7.10246015  7.11738655  7.12390865  7.18937986  7.24306427
  7.37584565  7.41277471  7.42518313  7.52114503  7.52419927  7.56018899
  7.60157396  7.62056674  7.63360809  7.66462105  7.70819866  7.7904781
  7.84887779  7.93843632  7.96526128  7.97137915  7.98714412  7.99233893
  8.03382621  8.07144865  8.10327619  8.14788441  8.17032535  8.21432746
  8.22569546  8.26734178  8.33194086  8.38415286  8.41090488  8.42356354
  8.45801563  8.46560949  8.5613157   8.56197591  8.62981017  8.68985243
  8.69459207  8.77380136  8.85690794  8.9652627   9.00163648  9.00458592
  9.07468405  9.09145776  9.2114685   9.24585304  9.30898349  9.34787807
  9.35229295  9.46444419  9.46675796  9.51256733  9.6625914   9.69998059
  9.70385322  9.76056619  9.80708262  9.92401636 10.03375093 10.03831527
 10.17585321 10.23585891 10.37031145 10.49131779 10.50206467 10.55721271
 10.62560145 10.64765543 10.66406063 11.25295393 11.28183968 11.43137761
 11.77957841 12.03757149 12.13750285 12.15859522 12.21471789 12.23805901
 12.27983913 12.41973848 12.48668793 12.75775343 12.79938281 12.83757767
 12.89507531 13.20989175 14.84454748 14.85890098 19.78217716 20.19055887]
E1 = -86.24887570606765  E_coul = 38.07671128823116
Extra cycle  E= -21.7083939283035  delta_E= -3.15e-12  |g|= 1.19e-06  |ddm|= 1.35e-05
    CPU time for scf_cycle   1152.95 sec, wall time      9.77 sec
    CPU time for SCF   1152.96 sec, wall time      9.77 sec
converged SCF energy = -21.7083939283035
