#INFO: **** input file is /home/nkousuke/lustre/toBeSync/turboRVB/05turbo-genius-development/turbogenius_paper/04data/sanity_checks/02pyscf_prep_LDA_via_trexio/00open_boundary/results/SiH2_singlet/pyscf-LDA-workflow/run.py ****

from pyscf_wrapper import Pyscf_wrapper

# input variables
pyscf_chkfile="pyscf.chk"
structure_file="SiH2_singlet.xyz"

# input variables
omp_num_threads=128
charge=0
spin=0
basis="ccecp-ccpvqz"
ecp="ccecp"
scf_method="DFT"
dft_xc="LDA_X,LDA_C_PZ"
solver_newton=False
MP2_flag=False
CCSD_flag=False
pyscf_output="out.pyscf"
twist_average=False
exp_to_discard=0.1
kpt=[0.0, 0.0, 0.0]
kpt_grid=[1, 1, 1]
smearing_method="fermi"
smearing_sigma=0.0

pyscf_calc=Pyscf_wrapper(
                        structure_file=structure_file,
                        chkfile=pyscf_chkfile,
                        )

pyscf_calc.run_pyscf(
                  omp_num_threads=omp_num_threads,
                  charge=charge,
                  spin=spin,
                  basis=basis,
                  ecp=ecp,
                  scf_method=scf_method,
                  dft_xc=dft_xc,
                  solver_newton=solver_newton,
                  MP2_flag=MP2_flag,
                  CCSD_flag=CCSD_flag,
                  pyscf_output=pyscf_output,
                  twist_average=twist_average,
                  exp_to_discard=exp_to_discard,
                  kpt=kpt,
                  kpt_grid=kpt_grid,
                  smearing_method=smearing_method,
                  smearing_sigma=smearing_sigma
                  )
                #INFO: ******************** input file end ********************


System: uname_result(system='Linux', node='spcc-109', release='5.4.0-66-generic', version='#74-Ubuntu SMP Wed Jan 27 22:54:38 UTC 2021', machine='x86_64', processor='x86_64')  Threads 128
Python 3.7.3 (default, Mar 27 2019, 22:11:17) 
[GCC 7.3.0]
numpy 1.20.1  scipy 1.7.3
Date: Thu Dec 22 05:29:36 2022
PySCF version 2.0.1
PySCF path  /home/nkousuke/application/anaconda3/lib/python3.7/site-packages/pyscf

[CONFIG] conf_file /home/nkousuke/.pyscf_conf.py
[INPUT] verbose = 5
[INPUT] max_memory = 507835.99609375 
[INPUT] num. atoms = 3
[INPUT] num. electrons = 6
[INPUT] charge = 0
[INPUT] spin (= nelec alpha-beta = 2S) = 0
[INPUT] symmetry False subgroup None
[INPUT] Mole.unit = A
[INPUT]  1 Si     0.000000000000   0.000000000000   0.130965000000 AA    0.000000000000   0.000000000000   0.247487981904 Bohr
[INPUT]  2 H      0.000000000000   1.094746000000  -0.916757000000 AA    0.000000000000   2.068770115963  -1.732419652778 Bohr
[INPUT]  3 H      0.000000000000  -1.094746000000  -0.916757000000 AA    0.000000000000  -2.068770115963  -1.732419652778 Bohr
[INPUT] ---------------- BASIS SET ---------------- 
[INPUT] l, kappa, [nprim/nctr], expnt,             c_1 c_2 ...
[INPUT] H
[INPUT] 0    0    [8    /1   ]  23.843185         0.0041149
                                10.212443         0.0104644
                                4.374164          0.0280111
                                1.873529          0.0758862
                                0.802465          0.1821062
                                0.343709          0.3485214
                                0.147217          0.3782313
                                0.063055          0.1164241
[INPUT] 0    0    [1    /1   ]  0.081856             1
[INPUT] 0    0    [1    /1   ]  0.233254             1
[INPUT] 0    0    [1    /1   ]  0.664673             1
[INPUT] 1    0    [1    /1   ]  0.284469             1
[INPUT] 1    0    [1    /1   ]  0.847159             1
[INPUT] 1    0    [1    /1   ]  2.522868             1
[INPUT] 2    0    [1    /1   ]  0.665279             1
[INPUT] 2    0    [1    /1   ]  2.048739             1
[INPUT] 3    0    [1    /1   ]  1.42146              1
[INPUT] Si
[INPUT] 0    0    [10   /1   ]  9.998274          0.002894
                                5.517644          -0.014523
                                3.044965          0.077634
                                1.680393          -0.224022
                                0.927341          -0.14908
                                0.511762          0.085944
                                0.282421          0.355394
                                0.155857          0.445219
                                0.086011          0.26723
                                0.047466          0.060787
[INPUT] 0    0    [1    /1   ]  0.488504             1
[INPUT] 0    0    [1    /1   ]  0.199457             1
[INPUT] 0    0    [1    /1   ]  0.081439             1
[INPUT] 1    0    [10   /1   ]  5.027868          -0.003242
                                2.867751          0.010649
                                1.635683          -0.049761
                                0.932947          -1.7e-05
                                0.532126          0.10606
                                0.303509          0.236202
                                0.173113          0.310665
                                0.098739          0.294696
                                0.056318          0.153898
                                0.032122          0.042337
[INPUT] 1    0    [1    /1   ]  1.22579              1
[INPUT] 1    0    [1    /1   ]  0.501364             1
[INPUT] 1    0    [1    /1   ]  0.205064             1
[INPUT] 2    0    [1    /1   ]  0.997003             1
[INPUT] 2    0    [1    /1   ]  0.365942             1
[INPUT] 2    0    [1    /1   ]  0.134316             1
[INPUT] 3    0    [1    /1   ]  0.549116             1
[INPUT] 3    0    [1    /1   ]  0.214998             1
[INPUT] 4    0    [1    /1   ]  0.459547             1

nuclear repulsion = 3.0354372447663
number of shells = 34
number of NR pGTOs = 164
number of NR cGTOs = 114
basis = ccecp-ccpvqz
ecp = ccecp
CPU time:         5.30


******** <class 'pyscf.df.df_jk.density_fit.<locals>.DFHF'> ********
method = DFHF-RKS-RHF
initial guess = minao
damping factor = 0
level_shift factor = 0
DIIS = <class 'pyscf.scf.diis.CDIIS'>
diis_start_cycle = 1
diis_space = 8
SCF conv_tol = 1e-09
SCF conv_tol_grad = None
SCF max_cycles = 200
direct_scf = True
direct_scf_tol = 1e-13
chkfile to save SCF result = pyscf.chk
max_memory 507835 MB (current use 106 MB)
XC library pyscf.dft.libxc version 5.1.7
    S. Lehtola, C. Steigemann, M. J. Oliveira, and M. A. Marques, SoftwareX 7, 1 (2018)
XC functionals = LDA_X,LDA_C_PZ
    P. A. M. Dirac, Math. Proc. Cambridge Philos. Soc. 26, 376 (1930)
    F. Bloch, Z. Phys. 57, 545 (1929)
    J. P. Perdew and A. Zunger, Phys. Rev. B 23, 5048 (1981)
radial grids: 
    Treutler-Ahlrichs [JCP 102, 346 (1995); DOI:10.1063/1.469408] (M4) radial grids
    
becke partition: Becke, JCP 88, 2547 (1988); DOI:10.1063/1.454033
pruning grids: <function nwchem_prune at 0x15210739a730>
grids dens level: 3
symmetrized grids: False
atomic radii adjust function: <function treutler_atomic_radii_adjust at 0x15210739a620>
small_rho_cutoff = 1e-07
Set gradient conv threshold to 3.16228e-05
atom Si rad-grids = 80, ang-grids = [ 50  50  50  50  50  50  50  50  50  50  50  50  50  50  50  50  50  50
  50  50  50  50  50  50  86  86  86  86  86  86  86  86  86  86  86  86
  86  86 350 350 350 350 350 350 350 350 350 434 434 434 434 434 434 434
 434 434 434 434 434 434 434 434 434 434 434 434 350 350 350 350 350 350
 350 350 350 350 350 350 350 350]
atom H rad-grids = 50, ang-grids = [ 50  50  50  50  50  50  50  50  50  50  50  50  50  50  86  86  86  86
 266 266 266 266 302 302 302 302 302 302 302 302 302 302 302 302 302 266
 266 266 266 266 266 266 266 266 266 266 266 266 266 266]
tot grids = 38748
Drop grids 1678
    CPU time for setting up grids     34.79 sec, wall time      0.30 sec
nelec by numeric integration = 5.999887575529206
    CPU time for vxc     40.18 sec, wall time      0.33 sec
Even tempered Gaussians are generated as DF auxbasis for  H Si
  ETB auxbasis for H  [[0, [32.28416, 1]], [0, [16.14208, 1]], [0, [8.07104, 1]], [0, [4.03552, 1]], [0, [2.01776, 1]], [0, [1.00888, 1]], [0, [0.50444, 1]], [0, [0.25222, 1]], [0, [0.12611, 1]], [1, [8.571507550502421, 1]], [1, [4.2857537752512105, 1]], [1, [2.1428768876256052, 1]], [1, [1.0714384438128026, 1]], [1, [0.5357192219064013, 1]], [1, [0.26785961095320066, 1]], [2, [4.551504, 1]], [2, [2.275752, 1]], [2, [1.137876, 1]], [2, [0.568938, 1]]]
  ETB auxbasis for Si  [[0, [12.151296, 1]], [0, [6.075648, 1]], [0, [3.037824, 1]], [0, [1.518912, 1]], [0, [0.759456, 1]], [0, [0.379728, 1]], [0, [0.189864, 1]], [0, [0.094932, 1]], [1, [9.996145562599215, 1]], [1, [4.998072781299608, 1]], [1, [2.499036390649804, 1]], [1, [1.249518195324902, 1]], [1, [0.624759097662451, 1]], [1, [0.3123795488312255, 1]], [1, [0.15618977441561274, 1]], [1, [0.07809488720780637, 1]], [2, [8.223232, 1]], [2, [4.111616, 1]], [2, [2.055808, 1]], [2, [1.027904, 1]], [2, [0.513952, 1]], [2, [0.256976, 1]], [2, [0.128488, 1]], [2, [0.064244, 1]], [3, [4.203829928647447, 1]], [3, [2.1019149643237234, 1]], [3, [1.0509574821618617, 1]], [3, [0.5254787410809308, 1]], [3, [0.2627393705404654, 1]], [3, [0.1313696852702327, 1]], [4, [2.149056, 1]], [4, [1.074528, 1]], [4, [0.537264, 1]], [4, [0.268632, 1]]]
num shells = 72, num cGTOs = 244
    CPU time for df-vj     22.66 sec, wall time      0.18 sec
E1 = -12.452658158560375  Ecoul = 6.338122655227349  Exc = -1.654572508989493
init E= -4.73367076755622
cond(S) = 17194.583828249375
    CPU time for initialize scf    174.16 sec, wall time      1.55 sec
  HOMO = -0.24273636204234  LUMO = -0.161829031181649
  mo_energy =
[-5.03639562e-01 -3.36260162e-01 -2.42736362e-01 -1.61829031e-01
 -2.42308556e-02  3.03531236e-03  7.51086746e-02  1.01666731e-01
  1.02828050e-01  1.15278618e-01  1.19178901e-01  1.46406420e-01
  1.64449552e-01  2.16619687e-01  2.65032554e-01  2.97466841e-01
  3.47851158e-01  4.88050472e-01  5.05047211e-01  5.20551417e-01
  5.32419911e-01  5.78504823e-01  6.17047435e-01  6.36725924e-01
  6.55175651e-01  6.77900013e-01  6.80548601e-01  6.89245740e-01
  6.95936754e-01  7.93398709e-01  8.09156839e-01  8.56938448e-01
  9.07633915e-01  9.80356187e-01  1.06957624e+00  1.07885541e+00
  1.11767779e+00  1.15931946e+00  1.18246795e+00  1.39159098e+00
  1.61358010e+00  1.68373896e+00  1.69675300e+00  1.71963129e+00
  1.74145855e+00  1.74734386e+00  1.79266701e+00  1.81361518e+00
  1.90156714e+00  1.95351486e+00  1.95681148e+00  2.01393554e+00
  2.01738452e+00  2.08612697e+00  2.09302767e+00  2.11439867e+00
  2.17931914e+00  2.24125915e+00  2.26482146e+00  2.26866779e+00
  2.28416222e+00  2.34059424e+00  2.39864035e+00  2.40733338e+00
  2.44967593e+00  2.49108671e+00  2.50356457e+00  2.53094385e+00
  2.53438795e+00  2.56097572e+00  3.12945977e+00  3.15119160e+00
  3.16892019e+00  3.19565184e+00  3.22127619e+00  3.22384115e+00
  3.45872214e+00  3.49480579e+00  4.80989810e+00  4.95831588e+00
  5.02509865e+00  5.76799362e+00  5.78187418e+00  5.78911291e+00
  5.82674198e+00  5.90018948e+00  5.98955200e+00  6.05580803e+00
  6.12634652e+00  6.13099260e+00  6.15246412e+00  6.32429579e+00
  6.32473873e+00  6.35019547e+00  6.37161078e+00  6.57046370e+00
  6.59107875e+00  7.77963842e+00  7.84895435e+00  7.85834755e+00
  7.91004067e+00  8.01176652e+00  8.02542662e+00  8.06443913e+00
  8.09788254e+00  8.35884008e+00  8.36477611e+00  8.39461849e+00
  8.52732976e+00  8.58297509e+00  8.64305184e+00  8.81208225e+00
  9.28687437e+00  1.03637727e+01]
nelec by numeric integration = 5.999999969757319
    CPU time for vxc     34.71 sec, wall time      0.27 sec
    CPU time for df-vj      4.58 sec, wall time      0.04 sec
E1 = -12.897039717659284  Ecoul = 6.692219519556405  Exc = -1.7741298987360279
cycle= 1 E= -4.94351285207261  delta_E= -0.21  |g|= 0.109  |ddm|= 1.91
    CPU time for cycle= 1     63.42 sec, wall time      0.50 sec
  HOMO = -0.200510200622698  LUMO = -0.143609145658931
  mo_energy =
[-4.45833646e-01 -2.71090806e-01 -2.00510201e-01 -1.43609146e-01
  9.57958432e-03  2.94647239e-02  1.02007257e-01  1.27536724e-01
  1.36997990e-01  1.38314610e-01  1.42419094e-01  1.67699850e-01
  1.80340283e-01  2.38549945e-01  2.86875182e-01  3.33611644e-01
  3.78700302e-01  5.16747514e-01  5.39352612e-01  5.44965131e-01
  5.64653713e-01  6.04487035e-01  6.55536092e-01  6.65370231e-01
  6.95200458e-01  7.04917232e-01  7.10171922e-01  7.10888468e-01
  7.23828411e-01  8.26061707e-01  8.31330280e-01  8.79581102e-01
  9.46565517e-01  1.02040891e+00  1.11408189e+00  1.12837789e+00
  1.14071967e+00  1.19543355e+00  1.23230734e+00  1.42539090e+00
  1.64565519e+00  1.73120493e+00  1.73763189e+00  1.78528990e+00
  1.78724992e+00  1.79162468e+00  1.83602800e+00  1.86834358e+00
  1.94898579e+00  1.99150564e+00  1.99635540e+00  2.04626209e+00
  2.04882818e+00  2.11724704e+00  2.13775709e+00  2.13896175e+00
  2.21136063e+00  2.28156874e+00  2.30699475e+00  2.32006294e+00
  2.32614042e+00  2.38018261e+00  2.45569316e+00  2.45695224e+00
  2.49998096e+00  2.53743172e+00  2.55202671e+00  2.58248789e+00
  2.58526880e+00  2.61649604e+00  3.18336983e+00  3.19320392e+00
  3.22161352e+00  3.25070067e+00  3.26468049e+00  3.28217625e+00
  3.51733601e+00  3.55553837e+00  4.85586025e+00  5.02268627e+00
  5.09038093e+00  5.83902597e+00  5.85256690e+00  5.85885224e+00
  5.89671060e+00  5.97517466e+00  6.06139361e+00  6.13282373e+00
  6.20633130e+00  6.21220859e+00  6.22730402e+00  6.40213069e+00
  6.40929177e+00  6.42948797e+00  6.45409390e+00  6.65922958e+00
  6.67758475e+00  7.86682995e+00  7.93927656e+00  7.94458180e+00
  7.99625976e+00  8.10375904e+00  8.11740515e+00  8.15703683e+00
  8.19100287e+00  8.44297087e+00  8.45245492e+00  8.47890310e+00
  8.61475591e+00  8.66851866e+00  8.72794838e+00  8.90483316e+00
  9.38631253e+00  1.04320441e+01]
nelec by numeric integration = 5.999999977489457
    CPU time for vxc     37.20 sec, wall time      0.29 sec
    CPU time for df-vj      1.54 sec, wall time      0.01 sec
E1 = -12.771905729373799  Ecoul = 6.5002196049213685  Exc = -1.7112625990248473
cycle= 2 E= -4.94751147871098  delta_E= -0.004  |g|= 0.0544  |ddm|= 0.519
    CPU time for cycle= 2     94.34 sec, wall time      0.74 sec
  HOMO = -0.212277713478599  LUMO = -0.152564283341491
  mo_energy =
[-4.67103678e-01 -2.94442047e-01 -2.12277713e-01 -1.52564283e-01
  3.97051389e-04  1.92773341e-02  9.11382887e-02  1.17377763e-01
  1.27548519e-01  1.28221128e-01  1.33489145e-01  1.62276408e-01
  1.74143190e-01  2.31632456e-01  2.78155149e-01  3.20362627e-01
  3.69143681e-01  5.04881303e-01  5.26315977e-01  5.34756132e-01
  5.54158230e-01  5.95720608e-01  6.42385504e-01  6.53729350e-01
  6.84179668e-01  6.94686326e-01  6.99368067e-01  7.03019778e-01
  7.14515157e-01  8.16948852e-01  8.21038017e-01  8.70628380e-01
  9.32465376e-01  1.00420176e+00  1.09680193e+00  1.11082128e+00
  1.13088624e+00  1.18702322e+00  1.21253278e+00  1.41701669e+00
  1.63232817e+00  1.71227962e+00  1.72181328e+00  1.76211223e+00
  1.76948300e+00  1.77562128e+00  1.81751721e+00  1.85060043e+00
  1.93014501e+00  1.97982352e+00  1.98205722e+00  2.03597820e+00
  2.03828168e+00  2.10934684e+00  2.12471440e+00  2.13055022e+00
  2.19912877e+00  2.26744266e+00  2.28985199e+00  2.30532217e+00
  2.30683929e+00  2.36533149e+00  2.43575587e+00  2.43687554e+00
  2.47948003e+00  2.51925074e+00  2.53627751e+00  2.56512618e+00
  2.56592673e+00  2.59573600e+00  3.16336773e+00  3.17657987e+00
  3.20487945e+00  3.22938940e+00  3.24702803e+00  3.26178956e+00
  3.49681490e+00  3.53481925e+00  4.83968743e+00  5.00119747e+00
  5.06822111e+00  5.81162025e+00  5.82545632e+00  5.83238425e+00
  5.87005274e+00  5.94718865e+00  6.03472149e+00  6.10412880e+00
  6.17676634e+00  6.18283679e+00  6.19879432e+00  6.37296191e+00
  6.37867531e+00  6.39948468e+00  6.42507595e+00  6.62698959e+00
  6.64643425e+00  7.83471051e+00  7.90587512e+00  7.91311452e+00
  7.96431248e+00  8.06989526e+00  8.08318909e+00  8.12307957e+00
  8.15794932e+00  8.41153614e+00  8.42051765e+00  8.44733509e+00
  8.58373138e+00  8.63670983e+00  8.69617868e+00  8.87207014e+00
  9.35102679e+00  1.04095622e+01]
nelec by numeric integration = 5.999999975270581
    CPU time for vxc     34.37 sec, wall time      0.28 sec
    CPU time for df-vj      2.56 sec, wall time      0.02 sec
E1 = -12.82111307129915  Ecoul = 6.569116616861115  Exc = -1.7323944955492259
cycle= 3 E= -4.94895370522096  delta_E= -0.00144  |g|= 0.0117  |ddm|= 0.203
    CPU time for cycle= 3    106.62 sec, wall time      0.85 sec
  HOMO = -0.214100885984584  LUMO = -0.153064753809645
  mo_energy =
[-4.66645467e-01 -2.93616355e-01 -2.14100886e-01 -1.53064754e-01
 -7.94763153e-04  1.93680009e-02  9.15453975e-02  1.17698034e-01
  1.26687030e-01  1.27852378e-01  1.32938450e-01  1.60695560e-01
  1.73747645e-01  2.30965239e-01  2.78287717e-01  3.20423885e-01
  3.68525704e-01  5.05067235e-01  5.26691575e-01  5.34836811e-01
  5.53778341e-01  5.95092229e-01  6.41982165e-01  6.53443489e-01
  6.82628170e-01  6.93763214e-01  6.98312847e-01  7.02273004e-01
  7.13700380e-01  8.16071963e-01  8.21203352e-01  8.70410300e-01
  9.32778956e-01  1.00495272e+00  1.09721301e+00  1.11104412e+00
  1.12995666e+00  1.18434992e+00  1.21344690e+00  1.41497344e+00
  1.63221429e+00  1.71314969e+00  1.72194992e+00  1.76270331e+00
  1.76940467e+00  1.77552736e+00  1.81802851e+00  1.84996484e+00
  1.93084398e+00  1.97806093e+00  1.98121136e+00  2.03438230e+00
  2.03684563e+00  2.10741408e+00  2.12261426e+00  2.12886993e+00
  2.19833040e+00  2.26672317e+00  2.28973674e+00  2.30548689e+00
  2.30620457e+00  2.36474194e+00  2.43672138e+00  2.43755760e+00
  2.48090741e+00  2.52010334e+00  2.53571941e+00  2.56500661e+00
  2.56620003e+00  2.59669746e+00  3.16408250e+00  3.17676837e+00
  3.20434362e+00  3.23036689e+00  3.24742809e+00  3.26202137e+00
  3.49692382e+00  3.53461392e+00  4.83835571e+00  5.00033027e+00
  5.06765315e+00  5.81366020e+00  5.82743168e+00  5.83423990e+00
  5.87191491e+00  5.94896569e+00  6.03630624e+00  6.10558507e+00
  6.17818763e+00  6.18439866e+00  6.20071875e+00  6.37443783e+00
  6.38006480e+00  6.40115688e+00  6.42622724e+00  6.62858889e+00
  6.64802679e+00  7.83675309e+00  7.90811888e+00  7.91499256e+00
  7.96641910e+00  8.07184814e+00  8.08528114e+00  8.12525888e+00
  8.15959700e+00  8.41346058e+00  8.42248036e+00  8.44928734e+00
  8.58517813e+00  8.63867908e+00  8.69819583e+00  8.87326541e+00
  9.35256359e+00  1.04089503e+01]
nelec by numeric integration = 5.999999974713982
    CPU time for vxc     43.48 sec, wall time      0.34 sec
    CPU time for df-vj      5.58 sec, wall time      0.04 sec
E1 = -12.820305196945762  Ecoul = 6.567874926496677  Exc = -1.7320469220238905
cycle= 4 E= -4.94903994770667  delta_E= -8.62e-05  |g|= 0.0017  |ddm|= 0.0273
    CPU time for cycle= 4    105.34 sec, wall time      0.83 sec
  HOMO = -0.213629735824449  LUMO = -0.152539043755253
  mo_energy =
[-4.66064822e-01 -2.93203385e-01 -2.13629736e-01 -1.52539044e-01
 -4.66799486e-04  1.96111980e-02  9.18423379e-02  1.17890674e-01
  1.27018239e-01  1.28237004e-01  1.33307652e-01  1.61006799e-01
  1.74099220e-01  2.31198578e-01  2.78524230e-01  3.20713755e-01
  3.68799549e-01  5.05338277e-01  5.26961614e-01  5.35138686e-01
  5.54066746e-01  5.95437925e-01  6.42348914e-01  6.53909111e-01
  6.83145285e-01  6.94370661e-01  6.98905205e-01  7.02612415e-01
  7.14074193e-01  8.16317327e-01  8.21506981e-01  8.70690515e-01
  9.33053202e-01  1.00533215e+00  1.09767448e+00  1.11135372e+00
  1.13058177e+00  1.18488777e+00  1.21373160e+00  1.41548807e+00
  1.63278830e+00  1.71356547e+00  1.72237785e+00  1.76320097e+00
  1.76994897e+00  1.77599346e+00  1.81858661e+00  1.85052279e+00
  1.93128228e+00  1.97875618e+00  1.98182976e+00  2.03496040e+00
  2.03742015e+00  2.10799826e+00  2.12310530e+00  2.12945125e+00
  2.19885324e+00  2.26724521e+00  2.29041202e+00  2.30587776e+00
  2.30692220e+00  2.36542150e+00  2.43701875e+00  2.43797040e+00
  2.48115168e+00  2.52041156e+00  2.53612901e+00  2.56552271e+00
  2.56661755e+00  2.59701700e+00  3.16446728e+00  3.17721876e+00
  3.20479986e+00  3.23078761e+00  3.24790094e+00  3.26246228e+00
  3.49744650e+00  3.53514937e+00  4.83933702e+00  5.00112361e+00
  5.06841531e+00  5.81392341e+00  5.82769505e+00  5.83449932e+00
  5.87217924e+00  5.94929056e+00  6.03662195e+00  6.10599532e+00
  6.17862739e+00  6.18474421e+00  6.20104996e+00  6.37488153e+00
  6.38049086e+00  6.40157866e+00  6.42665781e+00  6.62895402e+00
  6.64841713e+00  7.83699147e+00  7.90834925e+00  7.91523194e+00
  7.96664570e+00  8.07208986e+00  8.08551607e+00  8.12545152e+00
  8.15984249e+00  8.41373255e+00  8.42272337e+00  8.44956018e+00
  8.58549729e+00  8.63892307e+00  8.69844560e+00  8.87374078e+00
  9.35296039e+00  1.04099209e+01]
nelec by numeric integration = 5.999999974679174
    CPU time for vxc     34.99 sec, wall time      0.28 sec
    CPU time for df-vj      8.13 sec, wall time      0.06 sec
E1 = -12.818766603161542  Ecoul = 6.565948945784222  Exc = -1.7316609394764217
cycle= 5 E= -4.94904135208744  delta_E= -1.4e-06  |g|= 0.000193  |ddm|= 0.00553
    CPU time for cycle= 5     97.55 sec, wall time      0.77 sec
  HOMO = -0.213575850603849  LUMO = -0.152503949009226
  mo_energy =
[-4.66007556e-01 -2.93125642e-01 -2.13575851e-01 -1.52503949e-01
 -4.23358889e-04  1.96457642e-02  9.18820001e-02  1.17923021e-01
  1.27054171e-01  1.28274590e-01  1.33341134e-01  1.61035611e-01
  1.74128571e-01  2.31229291e-01  2.78552588e-01  3.20765892e-01
  3.68839316e-01  5.05382968e-01  5.27009067e-01  5.35179677e-01
  5.54102990e-01  5.95472230e-01  6.42394338e-01  6.53949274e-01
  6.83187623e-01  6.94412251e-01  6.98947193e-01  7.02646295e-01
  7.14107312e-01  8.16355831e-01  8.21545304e-01  8.70728942e-01
  9.33100203e-01  1.00537647e+00  1.09772372e+00  1.11141700e+00
  1.13062060e+00  1.18493948e+00  1.21380217e+00  1.41552764e+00
  1.63282352e+00  1.71361616e+00  1.72242664e+00  1.76325696e+00
  1.77000892e+00  1.77604631e+00  1.81863421e+00  1.85057813e+00
  1.93134098e+00  1.97880616e+00  1.98188265e+00  2.03500696e+00
  2.03746655e+00  2.10804272e+00  2.12316316e+00  2.12949257e+00
  2.19890081e+00  2.26730591e+00  2.29046324e+00  2.30593478e+00
  2.30697255e+00  2.36547025e+00  2.43710136e+00  2.43803741e+00
  2.48123480e+00  2.52048875e+00  2.53619510e+00  2.56557564e+00
  2.56668627e+00  2.59709563e+00  3.16453696e+00  3.17728006e+00
  3.20485783e+00  3.23085621e+00  3.24796388e+00  3.26252601e+00
  3.49751524e+00  3.53521828e+00  4.83938677e+00  5.00119638e+00
  5.06849469e+00  5.81401538e+00  5.82778810e+00  5.83459463e+00
  5.87227332e+00  5.94938150e+00  6.03671757e+00  6.10609236e+00
  6.17872173e+00  6.18484262e+00  6.20113939e+00  6.37497280e+00
  6.38058383e+00  6.40167022e+00  6.42675326e+00  6.62906179e+00
  6.64851157e+00  7.83711503e+00  7.90846843e+00  7.91535847e+00
  7.96676791e+00  8.07222918e+00  8.08565259e+00  8.12558186e+00
  8.15997843e+00  8.41385557e+00  8.42284146e+00  8.44968247e+00
  8.58561885e+00  8.63904481e+00  8.69856802e+00  8.87384989e+00
  9.35308099e+00  1.04099871e+01]
nelec by numeric integration = 5.999999974697831
    CPU time for vxc     38.06 sec, wall time      0.30 sec
    CPU time for df-vj      5.59 sec, wall time      0.05 sec
E1 = -12.818689432137964  Ecoul = 6.565808146670799  Exc = -1.7315973284864603
cycle= 6 E= -4.94904136918733  delta_E= -1.71e-08  |g|= 2.82e-05  |ddm|= 0.000737
    CPU time for cycle= 6     98.49 sec, wall time      0.77 sec
  HOMO = -0.213579433007282  LUMO = -0.152508805852817
  mo_energy =
[-4.66017076e-01 -2.93137134e-01 -2.13579433e-01 -1.52508806e-01
 -4.27327161e-04  1.96402990e-02  9.18763918e-02  1.17916769e-01
  1.27050692e-01  1.28269475e-01  1.33337882e-01  1.61034093e-01
  1.74125388e-01  2.31225562e-01  2.78547778e-01  3.20760117e-01
  3.68835339e-01  5.05377100e-01  5.27001634e-01  5.35174149e-01
  5.54099730e-01  5.95469031e-01  6.42388089e-01  6.53942887e-01
  6.83183970e-01  6.94406488e-01  6.98943071e-01  7.02642098e-01
  7.14103671e-01  8.16352330e-01  8.21539590e-01  8.70724482e-01
  9.33093477e-01  1.00536842e+00  1.09771466e+00  1.11140889e+00
  1.13061540e+00  1.18493727e+00  1.21379265e+00  1.41552389e+00
  1.63281706e+00  1.71360703e+00  1.72241957e+00  1.76324679e+00
  1.77000029e+00  1.77603971e+00  1.81862591e+00  1.85057099e+00
  1.93133195e+00  1.97880173e+00  1.98187641e+00  2.03500264e+00
  2.03746099e+00  2.10803867e+00  2.12315839e+00  2.12948816e+00
  2.19889447e+00  2.26729912e+00  2.29045536e+00  2.30592770e+00
  2.30696467e+00  2.36546225e+00  2.43709126e+00  2.43802908e+00
  2.48122502e+00  2.52047978e+00  2.53618770e+00  2.56556758e+00
  2.56667739e+00  2.59708545e+00  3.16452766e+00  3.17727197e+00
  3.20485022e+00  3.23084614e+00  3.24795531e+00  3.26251754e+00
  3.49750586e+00  3.53520924e+00  4.83937802e+00  5.00118612e+00
  5.06848357e+00  5.81400315e+00  5.82777583e+00  5.83458227e+00
  5.87226103e+00  5.94936911e+00  6.03670520e+00  6.10607924e+00
  6.17870840e+00  6.18482934e+00  6.20112708e+00  6.37495997e+00
  6.38057077e+00  6.40165722e+00  6.42674010e+00  6.62904738e+00
  6.64849815e+00  7.83710046e+00  7.90845370e+00  7.91534390e+00
  7.96675343e+00  8.07221333e+00  8.08563676e+00  8.12556620e+00
  8.15996262e+00  8.41384135e+00  8.42282713e+00  8.44966825e+00
  8.58560449e+00  8.63903025e+00  8.69855357e+00  8.87383542e+00
  9.35306542e+00  1.04099755e+01]
nelec by numeric integration = 5.9999999746965615
    CPU time for vxc     35.19 sec, wall time      0.28 sec
    CPU time for df-vj      8.13 sec, wall time      0.07 sec
E1 = -12.818707623418167  Ecoul = 6.565834391616175  Exc = -1.7316053826238558
cycle= 7 E= -4.94904136965955  delta_E= -4.72e-10  |g|= 2.15e-06  |ddm|= 0.000113
    CPU time for cycle= 7     78.71 sec, wall time      0.62 sec
  HOMO = -0.213580883790739  LUMO = -0.152509707797736
  mo_energy =
[-4.66018025e-01 -2.93137755e-01 -2.13580884e-01 -1.52509708e-01
 -4.28155188e-04  1.96397038e-02  9.18758902e-02  1.17916358e-01
  1.27049786e-01  1.28268917e-01  1.33336966e-01  1.61033040e-01
  1.74124769e-01  2.31224931e-01  2.78547235e-01  3.20759500e-01
  3.68834643e-01  5.05376498e-01  5.27001220e-01  5.35173574e-01
  5.54098900e-01  5.95468273e-01  6.42387228e-01  6.53942082e-01
  6.83182649e-01  6.94405588e-01  6.98941804e-01  7.02641417e-01
  7.14102853e-01  8.16351577e-01  8.21538979e-01  8.70723846e-01
  9.33092894e-01  1.00536779e+00  1.09771395e+00  1.11140815e+00
  1.13061429e+00  1.18493564e+00  1.21379201e+00  1.41552270e+00
  1.63281610e+00  1.71360638e+00  1.72241872e+00  1.76324597e+00
  1.76999941e+00  1.77603882e+00  1.81862495e+00  1.85056984e+00
  1.93133127e+00  1.97880030e+00  1.98187517e+00  2.03500141e+00
  2.03745982e+00  2.10803735e+00  2.12315697e+00  2.12948692e+00
  2.19889341e+00  2.26729814e+00  2.29045415e+00  2.30592692e+00
  2.30696333e+00  2.36546123e+00  2.43709068e+00  2.43802820e+00
  2.48122452e+00  2.52047932e+00  2.53618676e+00  2.56556657e+00
  2.56667653e+00  2.59708489e+00  3.16452697e+00  3.17727113e+00
  3.20484931e+00  3.23084545e+00  3.24795450e+00  3.26251654e+00
  3.49750493e+00  3.53520811e+00  4.83937635e+00  5.00118449e+00
  5.06848220e+00  5.81400266e+00  5.82777535e+00  5.83458185e+00
  5.87226055e+00  5.94936859e+00  6.03670474e+00  6.10607856e+00
  6.17870765e+00  6.18482871e+00  6.20112650e+00  6.37495930e+00
  6.38056990e+00  6.40165656e+00  6.42673943e+00  6.62904656e+00
  6.64849740e+00  7.83709990e+00  7.90845304e+00  7.91534337e+00
  7.96675285e+00  8.07221271e+00  8.08563609e+00  8.12556553e+00
  8.15996203e+00  8.41384078e+00  8.42282654e+00  8.44966767e+00
  8.58560388e+00  8.63902956e+00  8.69855296e+00  8.87383444e+00
  9.35306457e+00  1.04099739e+01]
nelec by numeric integration = 5.999999974696236
    CPU time for vxc     38.02 sec, wall time      0.30 sec
    CPU time for df-vj      6.57 sec, wall time      0.05 sec
E1 = -12.818709616695855  Ecoul = 6.565837105750982  Exc = -1.7316061034825367
Extra cycle  E= -4.94904136966111  delta_E= -1.56e-12  |g|= 1.37e-06  |ddm|= 1.17e-05
    CPU time for scf_cycle    907.27 sec, wall time      7.31 sec
    CPU time for SCF    907.28 sec, wall time      7.31 sec
converged SCF energy = -4.94904136966111
