#INFO: **** input file is /home/nkousuke/lustre/toBeSync/turboRVB/05turbo-genius-development/turbogenius_paper/04data/sanity_checks/03pyscf_HF_turbo_VMC_via_trexio/00open_boundary/results/SO2/pyscf-HF-workflow/run.py ****

from pyscf_wrapper import Pyscf_wrapper

# input variables
pyscf_chkfile="pyscf.chk"
structure_file="SO2.xyz"

# input variables
omp_num_threads=128
charge=0
spin=0
basis="ccecp-ccpvqz"
ecp="ccecp"
scf_method="HF"
dft_xc="NA"
solver_newton=False
MP2_flag=False
CCSD_flag=False
pyscf_output="out.pyscf"
twist_average=False
exp_to_discard=0.0
kpt=[0.0, 0.0, 0.0]
kpt_grid=[1, 1, 1]
smearing_method="fermi"
smearing_sigma=0.0

pyscf_calc=Pyscf_wrapper(
                        structure_file=structure_file,
                        chkfile=pyscf_chkfile,
                        )

pyscf_calc.run_pyscf(
                  omp_num_threads=omp_num_threads,
                  charge=charge,
                  spin=spin,
                  basis=basis,
                  ecp=ecp,
                  scf_method=scf_method,
                  dft_xc=dft_xc,
                  solver_newton=solver_newton,
                  MP2_flag=MP2_flag,
                  CCSD_flag=CCSD_flag,
                  pyscf_output=pyscf_output,
                  twist_average=twist_average,
                  exp_to_discard=exp_to_discard,
                  kpt=kpt,
                  kpt_grid=kpt_grid,
                  smearing_method=smearing_method,
                  smearing_sigma=smearing_sigma
                  )
                #INFO: ******************** input file end ********************


System: uname_result(system='Linux', node='spcc-200', release='5.4.0-66-generic', version='#74-Ubuntu SMP Wed Jan 27 22:54:38 UTC 2021', machine='x86_64', processor='x86_64')  Threads 128
Python 3.7.3 (default, Mar 27 2019, 22:11:17) 
[GCC 7.3.0]
numpy 1.20.1  scipy 1.7.3
Date: Mon Dec 19 18:11:12 2022
PySCF version 2.0.1
PySCF path  /home/nkousuke/application/anaconda3/lib/python3.7/site-packages/pyscf

[CONFIG] conf_file /home/nkousuke/.pyscf_conf.py
[INPUT] verbose = 5
[INPUT] max_memory = 507494.59765625 
[INPUT] num. atoms = 3
[INPUT] num. electrons = 18
[INPUT] charge = 0
[INPUT] spin (= nelec alpha-beta = 2S) = 0
[INPUT] symmetry False subgroup None
[INPUT] Mole.unit = A
[INPUT]  1 S      0.000000000000   0.000000000000   0.361830000000 AA    0.000000000000   0.000000000000   0.683759603651 Bohr
[INPUT]  2 O      0.000000000000   1.235920000000  -0.361830000000 AA    0.000000000000   2.335550311872  -0.683759603651 Bohr
[INPUT]  3 O      0.000000000000  -1.235920000000  -0.361830000000 AA    0.000000000000  -2.335550311872  -0.683759603651 Bohr
[INPUT] ---------------- BASIS SET ---------------- 
[INPUT] l, kappa, [nprim/nctr], expnt,             c_1 c_2 ...
[INPUT] O
[INPUT] 0    0    [9    /1   ]  54.775216         -0.0012444
                                25.616801         0.010733
                                11.980245         0.0018889
                                6.992317          -0.1742537
                                2.620277          0.0017622
                                1.225429          0.3161846
                                0.577797          0.4512023
                                0.268022          0.3121534
                                0.125346          0.0511167
[INPUT] 0    0    [1    /1   ]  1.351771             1
[INPUT] 0    0    [1    /1   ]  0.843157             1
[INPUT] 0    0    [1    /1   ]  0.22438              1
[INPUT] 1    0    [9    /1   ]  22.217266         0.0104866
                                10.74755          0.0366435
                                5.315785          0.0803674
                                2.660761          0.162701
                                1.331816          0.2377791
                                0.678626          0.2811422
                                0.333673          0.2643189
                                0.167017          0.1466014
                                0.083598          0.0458145
[INPUT] 1    0    [1    /1   ]  1.106737             1
[INPUT] 1    0    [1    /1   ]  0.452364             1
[INPUT] 1    0    [1    /1   ]  0.148562             1
[INPUT] 2    0    [1    /1   ]  4.008867             1
[INPUT] 2    0    [1    /1   ]  1.344331             1
[INPUT] 2    0    [1    /1   ]  0.455711             1
[INPUT] 3    0    [1    /1   ]  2.763115             1
[INPUT] 3    0    [1    /1   ]  0.876289             1
[INPUT] 4    0    [1    /1   ]  1.759081             1
[INPUT] S
[INPUT] 0    0    [10   /1   ]  14.05257          0.002102
                                7.864913          -0.011042
                                4.401818          0.086618
                                2.4636            -0.271004
                                1.378823          -0.151274
                                0.771696          0.136044
                                0.431901          0.39436
                                0.241726          0.432098
                                0.135289          0.230974
                                0.075718          0.051205
[INPUT] 0    0    [1    /1   ]  0.818729             1
[INPUT] 0    0    [1    /1   ]  0.332501             1
[INPUT] 0    0    [1    /1   ]  0.135035             1
[INPUT] 1    0    [10   /1   ]  6.808844          -0.003573
                                3.94156           0.001903
                                2.281723          -0.065016
                                1.320863          0.042305
                                0.764632          0.158772
                                0.442637          0.278172
                                0.256237          0.293821
                                0.148333          0.248015
                                0.085868          0.114905
                                0.049708          0.032934
[INPUT] 1    0    [1    /1   ]  2.088209             1
[INPUT] 1    0    [1    /1   ]  0.838124             1
[INPUT] 1    0    [1    /1   ]  0.33639              1
[INPUT] 2    0    [1    /1   ]  1.68189              1
[INPUT] 2    0    [1    /1   ]  0.613672             1
[INPUT] 2    0    [1    /1   ]  0.223911             1
[INPUT] 3    0    [1    /1   ]  0.898397             1
[INPUT] 3    0    [1    /1   ]  0.339271             1
[INPUT] 4    0    [1    /1   ]  0.691446             1

nuclear repulsion = 34.3100189431656
number of shells = 42
number of NR pGTOs = 262
number of NR cGTOs = 162
basis = ccecp-ccpvqz
ecp = ccecp
CPU time:         5.78


******** <class 'pyscf.scf.hf.RHF'> ********
method = RHF
initial guess = minao
damping factor = 0
level_shift factor = 0
DIIS = <class 'pyscf.scf.diis.CDIIS'>
diis_start_cycle = 1
diis_space = 8
SCF conv_tol = 1e-09
SCF conv_tol_grad = None
SCF max_cycles = 200
direct_scf = True
direct_scf_tol = 1e-13
chkfile to save SCF result = pyscf.chk
max_memory 507494 MB (current use 106 MB)
Set gradient conv threshold to 3.16228e-05
E1 = -135.7309230827229  E_coul = 59.86141628738659
init E= -41.5594878521707
cond(S) = 11045.671465921234
    CPU time for initialize scf    189.13 sec, wall time      1.68 sec
  HOMO = -0.347454804777384  LUMO = -0.120768826840397
  mo_energy =
[-1.82930424 -1.63299104 -0.87608099 -0.67540738 -0.66619514 -0.66228725
 -0.51315566 -0.49031479 -0.3474548  -0.12076883  0.11660511  0.14569507
  0.29764199  0.32683309  0.40100332  0.40226779  0.42038261  0.45728228
  0.45788615  0.45803046  0.48570087  0.56561479  0.56992986  0.57493742
  0.58861552  0.81618541  0.90398077  0.99001279  1.04901029  1.08040627
  1.13093657  1.17606995  1.2425792   1.30260389  1.31481028  1.33595914
  1.39350479  1.4114287   1.45641763  1.48081658  1.50909587  1.54756387
  1.58421047  1.6668607   1.68204942  1.70667197  1.76686072  1.76822342
  1.81365413  1.83289213  1.89902402  2.03786223  2.18937258  2.3823499
  2.484052    2.49956174  2.51367401  2.53080575  2.6340806   2.79813878
  3.00903122  3.04585275  3.07937452  3.09791441  3.09859205  3.22789821
  3.24639576  3.2671151   3.3434635   3.37801077  3.42076502  3.43881734
  3.48604595  3.51941265  3.64249506  3.65576816  3.69405727  3.74791603
  3.80028508  3.86587708  3.87455223  3.96265659  3.9945016   4.07909514
  4.12514801  4.18775575  4.18843318  4.22589764  4.27030843  4.28329743
  4.36903077  4.3710647   4.40089142  4.5038826   4.57951394  4.60237778
  4.64406782  4.68115664  4.74882521  4.93344525  5.14282479  5.26932971
  5.51116072  5.52229057  5.6346331   5.77934701  6.56320292  6.73882609
  7.24818195  7.26122585  7.37370841  7.3896194   8.27177742  8.41929951
  8.7075133   8.76132029  8.76303939  8.77123277  8.77156691  8.77974669
  8.81973997  8.84669674  8.87777828  8.95029327  8.95499715  9.06555445
  9.10145686  9.14387616  9.26303827  9.38946394  9.48474399  9.61830282
  9.63472199  9.82755004 10.38106801 11.66173545 11.67154306 11.68513583
 11.69394546 11.8839902  11.91404044 11.96101548 12.01171466 12.40367511
 12.432219   12.44737161 12.45664296 12.51867972 12.69713412 12.89520936
 12.9565582  12.96576581 12.99424183 13.18384004 13.21529595 13.25498836
 13.32110122 13.70693278 13.80403783 15.58181424 32.66053906 32.68115187]
E1 = -137.08655686891368  E_coul = 61.409109276929605
cycle= 1 E= -41.3674286488184  delta_E= 0.192  |g|= 0.778  |ddm|= 3.16
    CPU time for cycle= 1     47.79 sec, wall time      0.40 sec
  HOMO = -0.475704226154716  LUMO = -0.0269823286289336
  mo_energy =
[-1.52245466e+00 -1.38775843e+00 -8.80848549e-01 -6.80545467e-01
 -6.72523400e-01 -6.42298494e-01 -4.87205620e-01 -4.82480256e-01
 -4.75704226e-01 -2.69823286e-02  1.46021844e-01  1.64150122e-01
  3.15774753e-01  3.28634312e-01  3.30554986e-01  3.38612408e-01
  4.19845621e-01  4.24408850e-01  4.81525803e-01  4.97303095e-01
  5.16488779e-01  5.23179794e-01  5.48300563e-01  5.69326229e-01
  6.22397572e-01  7.87610862e-01  8.77319106e-01  1.03467906e+00
  1.03728923e+00  1.06383612e+00  1.10619052e+00  1.15651660e+00
  1.19821812e+00  1.22574498e+00  1.22976030e+00  1.32202395e+00
  1.32919883e+00  1.33552041e+00  1.34945060e+00  1.46969857e+00
  1.50449668e+00  1.50461428e+00  1.58029355e+00  1.69408090e+00
  1.72285889e+00  1.78282756e+00  1.78484335e+00  1.85587651e+00
  1.86675073e+00  1.87546055e+00  1.95029186e+00  1.98891272e+00
  2.08588669e+00  2.45325257e+00  2.47592387e+00  2.49464693e+00
  2.52797305e+00  2.57951235e+00  2.62639555e+00  2.83973421e+00
  2.98099507e+00  2.99008959e+00  3.00460248e+00  3.02007065e+00
  3.06674454e+00  3.12784563e+00  3.16838852e+00  3.20465474e+00
  3.25624494e+00  3.26158277e+00  3.39954734e+00  3.43803130e+00
  3.45969520e+00  3.51946869e+00  3.54916333e+00  3.58975838e+00
  3.64552468e+00  3.68500895e+00  3.72203884e+00  3.83255686e+00
  3.84119258e+00  3.90757349e+00  3.95311824e+00  3.95656376e+00
  4.11359308e+00  4.16528705e+00  4.18572015e+00  4.33282757e+00
  4.34013370e+00  4.38085614e+00  4.51351455e+00  4.51827685e+00
  4.58031916e+00  4.61738069e+00  4.62582842e+00  4.69355259e+00
  4.78850423e+00  4.85059072e+00  4.89739272e+00  5.08350855e+00
  5.22693664e+00  5.33009142e+00  5.49338139e+00  5.54115029e+00
  5.59530472e+00  5.76677465e+00  6.67720539e+00  6.86894385e+00
  7.51314992e+00  7.52952942e+00  7.65148328e+00  7.66274740e+00
  8.47521836e+00  8.49679943e+00  8.58294677e+00  8.90560449e+00
  8.95343216e+00  8.95858695e+00  8.96720254e+00  8.97013614e+00
  8.97472946e+00  9.00548712e+00  9.02120177e+00  9.09993092e+00
  9.12151416e+00  9.12802718e+00  9.27167651e+00  9.28356953e+00
  9.42583871e+00  9.51753667e+00  9.62519196e+00  9.72059245e+00
  9.76228043e+00  9.87410095e+00  1.03344777e+01  1.19386168e+01
  1.19482205e+01  1.19642906e+01  1.19727938e+01  1.21556374e+01
  1.21805903e+01  1.22370377e+01  1.22833711e+01  1.26422172e+01
  1.26961986e+01  1.27186109e+01  1.27257448e+01  1.27937119e+01
  1.29538363e+01  1.32159860e+01  1.32781042e+01  1.32909513e+01
  1.33158076e+01  1.34918153e+01  1.35217493e+01  1.35678776e+01
  1.36309406e+01  1.39801712e+01  1.40778897e+01  1.53552964e+01
  3.30644362e+01  3.30851602e+01]
E1 = -136.08336641824178  E_coul = 60.34416278941132
cycle= 2 E= -41.4291846856648  delta_E= -0.0618  |g|= 0.587  |ddm|= 1.33
    CPU time for cycle= 2     91.16 sec, wall time      0.74 sec
  HOMO = -0.499180162620747  LUMO = 3.84286330125053e-06
  mo_energy =
[-1.53225291e+00 -1.43129058e+00 -8.82124827e-01 -7.08850424e-01
 -7.01841680e-01 -6.74914600e-01 -5.52486452e-01 -5.38333473e-01
 -4.99180163e-01  3.84286330e-06  1.72776211e-01  1.86016059e-01
  3.28408958e-01  3.52176708e-01  3.68742581e-01  3.73035881e-01
  4.31110000e-01  4.52678329e-01  4.76650313e-01  4.81387865e-01
  5.16992445e-01  5.56412883e-01  5.61583914e-01  5.69546099e-01
  6.10825908e-01  8.21054511e-01  9.06974572e-01  1.02066424e+00
  1.06732682e+00  1.08000072e+00  1.11086197e+00  1.18047165e+00
  1.24612893e+00  1.26012528e+00  1.30091840e+00  1.33963899e+00
  1.37368330e+00  1.39149147e+00  1.39611008e+00  1.48773107e+00
  1.51133690e+00  1.53028563e+00  1.57633405e+00  1.69151510e+00
  1.70915375e+00  1.75222884e+00  1.79016067e+00  1.81675577e+00
  1.85258161e+00  1.86529990e+00  1.93592255e+00  2.01787197e+00
  2.15245644e+00  2.41950378e+00  2.48599601e+00  2.52117436e+00
  2.53892603e+00  2.54829615e+00  2.63745391e+00  2.82612075e+00
  3.01784454e+00  3.04411303e+00  3.04829009e+00  3.06382847e+00
  3.10511961e+00  3.19577348e+00  3.22981198e+00  3.25744672e+00
  3.33712427e+00  3.34729047e+00  3.45339623e+00  3.47687237e+00
  3.48227565e+00  3.50270892e+00  3.61734204e+00  3.63063048e+00
  3.68814728e+00  3.69931687e+00  3.76862537e+00  3.86907763e+00
  3.87743746e+00  3.96409099e+00  3.97410985e+00  4.04038405e+00
  4.12932464e+00  4.20363966e+00  4.20454307e+00  4.28471288e+00
  4.31645451e+00  4.32745219e+00  4.43398212e+00  4.44301357e+00
  4.49012362e+00  4.57273181e+00  4.62178719e+00  4.66327893e+00
  4.70883455e+00  4.76621347e+00  4.82740837e+00  5.01336245e+00
  5.19884786e+00  5.31895925e+00  5.52017782e+00  5.54695414e+00
  5.62924443e+00  5.79426621e+00  6.62466472e+00  6.80907307e+00
  7.36562122e+00  7.37991277e+00  7.50229655e+00  7.51682536e+00
  8.37235091e+00  8.51023603e+00  8.63604664e+00  8.86397881e+00
  8.86649953e+00  8.87456828e+00  8.87673640e+00  8.88657199e+00
  8.92226095e+00  8.93253945e+00  8.94122891e+00  9.02458796e+00
  9.04787886e+00  9.12201516e+00  9.20197159e+00  9.22975785e+00
  9.35894508e+00  9.47139788e+00  9.56922738e+00  9.68987787e+00
  9.71235250e+00  9.86756232e+00  1.03826343e+01  1.17934261e+01
  1.18031536e+01  1.18190060e+01  1.18273080e+01  1.20166084e+01
  1.20438420e+01  1.20954276e+01  1.21440914e+01  1.25268161e+01
  1.25585597e+01  1.25819130e+01  1.25882128e+01  1.26576876e+01
  1.28252073e+01  1.30392810e+01  1.31013747e+01  1.31122373e+01
  1.31394936e+01  1.33225533e+01  1.33529868e+01  1.34027160e+01
  1.34685388e+01  1.38378325e+01  1.39349442e+01  1.54996941e+01
  3.28278083e+01  3.28484615e+01]
E1 = -136.82418803045815  E_coul = 61.02195107661994
cycle= 3 E= -41.4922180106726  delta_E= -0.063  |g|= 0.0576  |ddm|= 0.596
    CPU time for cycle= 3     54.97 sec, wall time      0.44 sec
  HOMO = -0.491674320442947  LUMO = 0.0138073846172404
  mo_energy =
[-1.51295848e+00 -1.41196547e+00 -8.70116744e-01 -6.95412837e-01
 -6.89171539e-01 -6.62057423e-01 -5.38060739e-01 -5.21327606e-01
 -4.91674320e-01  1.38073846e-02  1.80861746e-01  1.91552850e-01
  3.34265919e-01  3.57455827e-01  3.71159183e-01  3.77549654e-01
  4.35776150e-01  4.61917985e-01  4.80080840e-01  4.85658090e-01
  5.29038618e-01  5.65537477e-01  5.67182995e-01  5.73018548e-01
  6.15365260e-01  8.29456222e-01  9.16139946e-01  1.02630665e+00
  1.07414211e+00  1.08645501e+00  1.11749439e+00  1.19028613e+00
  1.25369604e+00  1.26714792e+00  1.30853157e+00  1.34965549e+00
  1.38105596e+00  1.39933817e+00  1.40190870e+00  1.49389095e+00
  1.52148320e+00  1.53750477e+00  1.58255951e+00  1.69869184e+00
  1.71667717e+00  1.76057689e+00  1.79766244e+00  1.82593198e+00
  1.86139378e+00  1.87379682e+00  1.94629317e+00  2.02846538e+00
  2.15780469e+00  2.43366250e+00  2.49773897e+00  2.53092855e+00
  2.55006050e+00  2.55856453e+00  2.65011327e+00  2.83405235e+00
  3.02624157e+00  3.05745022e+00  3.05810159e+00  3.07371539e+00
  3.11900210e+00  3.20784444e+00  3.24184921e+00  3.26786947e+00
  3.34720619e+00  3.35653114e+00  3.46283331e+00  3.48790776e+00
  3.49459048e+00  3.51479786e+00  3.62505576e+00  3.63922497e+00
  3.69554849e+00  3.70999127e+00  3.77621470e+00  3.88250325e+00
  3.89121568e+00  3.97269012e+00  3.98518662e+00  4.05068446e+00
  4.14045563e+00  4.21546872e+00  4.21587301e+00  4.30373932e+00
  4.32659144e+00  4.34294562e+00  4.44752377e+00  4.46125561e+00
  4.50560150e+00  4.59088485e+00  4.63351102e+00  4.68117724e+00
  4.72413416e+00  4.78232598e+00  4.84181726e+00  5.02752437e+00
  5.21717581e+00  5.33740086e+00  5.53216285e+00  5.56200288e+00
  5.64072078e+00  5.80535336e+00  6.64004234e+00  6.82586820e+00
  7.39363686e+00  7.40800508e+00  7.52992499e+00  7.54415832e+00
  8.39720162e+00  8.53481035e+00  8.64583568e+00  8.88336924e+00
  8.88562468e+00  8.89342168e+00  8.89566229e+00  8.90580292e+00
  8.94180810e+00  8.94910099e+00  8.96041358e+00  9.04606264e+00
  9.06896317e+00  9.14310256e+00  9.22241362e+00  9.25086489e+00
  9.38039962e+00  9.49339440e+00  9.59308700e+00  9.71191866e+00
  9.73657380e+00  9.88745010e+00  1.04009504e+01  1.18200529e+01
  1.18297447e+01  1.18454691e+01  1.18537651e+01  1.20435875e+01
  1.20715727e+01  1.21216156e+01  1.21712839e+01  1.25533234e+01
  1.25837916e+01  1.26071562e+01  1.26141947e+01  1.26837813e+01
  1.28500900e+01  1.30704743e+01  1.31319704e+01  1.31427331e+01
  1.31698255e+01  1.33540495e+01  1.33844082e+01  1.34350249e+01
  1.34998264e+01  1.38683500e+01  1.39666674e+01  1.55111671e+01
  3.28685541e+01  3.28891793e+01]
E1 = -136.70061551502786  E_coul = 60.89745462485164
cycle= 4 E= -41.4931419470106  delta_E= -0.000924  |g|= 0.0192  |ddm|= 0.0978
    CPU time for cycle= 4     84.15 sec, wall time      0.66 sec
  HOMO = -0.496756403037065  LUMO = 0.0121638432518724
  mo_energy =
[-1.51903043e+00 -1.41828928e+00 -8.73342253e-01 -7.01295585e-01
 -6.93983172e-01 -6.65975946e-01 -5.44935620e-01 -5.25420547e-01
 -4.96756403e-01  1.21638433e-02  1.79004314e-01  1.90952069e-01
  3.32629988e-01  3.56545321e-01  3.71062710e-01  3.76396668e-01
  4.34408078e-01  4.59956101e-01  4.79179951e-01  4.84696742e-01
  5.25805008e-01  5.63557947e-01  5.65283639e-01  5.72299909e-01
  6.14093869e-01  8.27317582e-01  9.13434688e-01  1.02462699e+00
  1.07213972e+00  1.08434115e+00  1.11556366e+00  1.18694978e+00
  1.25104107e+00  1.26496475e+00  1.30588796e+00  1.34660556e+00
  1.37857340e+00  1.39671665e+00  1.40005304e+00  1.49234288e+00
  1.51822361e+00  1.53527835e+00  1.58075721e+00  1.69629758e+00
  1.71456862e+00  1.75784231e+00  1.79544957e+00  1.82342550e+00
  1.85850400e+00  1.87118272e+00  1.94289764e+00  2.02536132e+00
  2.15602227e+00  2.43002186e+00  2.49455333e+00  2.52754028e+00
  2.54631871e+00  2.55546504e+00  2.64616295e+00  2.83135958e+00
  3.02316164e+00  3.05313503e+00  3.05508913e+00  3.07060047e+00
  3.11443407e+00  3.20368730e+00  3.23781652e+00  3.26463062e+00
  3.34393652e+00  3.35359603e+00  3.45977202e+00  3.48453091e+00
  3.49105431e+00  3.51059237e+00  3.62230719e+00  3.63659899e+00
  3.69303244e+00  3.70680609e+00  3.77368659e+00  3.87787829e+00
  3.88651132e+00  3.96964540e+00  3.98177117e+00  4.04665097e+00
  4.13640828e+00  4.21152471e+00  4.21195232e+00  4.29817408e+00
  4.32333588e+00  4.33816489e+00  4.44344142e+00  4.45575896e+00
  4.50106740e+00  4.58551555e+00  4.63003461e+00  4.67576127e+00
  4.71973244e+00  4.77776459e+00  4.83752762e+00  5.02334045e+00
  5.21157905e+00  5.33172695e+00  5.52825769e+00  5.55727640e+00
  5.63670372e+00  5.80147683e+00  6.63498859e+00  6.82045182e+00
  7.38502009e+00  7.39941521e+00  7.52146915e+00  7.53578443e+00
  8.38968877e+00  8.52726143e+00  8.64115577e+00  8.87767359e+00
  8.87992902e+00  8.88782472e+00  8.89002914e+00  8.90033468e+00
  8.93619732e+00  8.94385263e+00  8.95492287e+00  9.03971158e+00
  9.06309612e+00  9.13670431e+00  9.21688251e+00  9.24499941e+00
  9.37454627e+00  9.48735752e+00  9.58646467e+00  9.70556506e+00
  9.73008460e+00  9.88164265e+00  1.03946786e+01  1.18117419e+01
  1.18214155e+01  1.18372465e+01  1.18455400e+01  1.20356272e+01
  1.20633830e+01  1.21138824e+01  1.21632672e+01  1.25458337e+01
  1.25762578e+01  1.25995683e+01  1.26071774e+01  1.26766774e+01
  1.28431166e+01  1.30606814e+01  1.31223705e+01  1.31331676e+01
  1.31603019e+01  1.33443264e+01  1.33747273e+01  1.34257477e+01
  1.34908489e+01  1.38594567e+01  1.39574506e+01  1.55054852e+01
  3.28557910e+01  3.28764255e+01]
E1 = -136.73784419417078  E_coul = 60.934567760499114
cycle= 5 E= -41.493257490506  delta_E= -0.000116  |g|= 0.00321  |ddm|= 0.0371
    CPU time for cycle= 5     80.50 sec, wall time      0.64 sec
  HOMO = -0.496651416317526  LUMO = 0.0123597858846497
  mo_energy =
[-1.51854269e+00 -1.41770037e+00 -8.72954890e-01 -7.00915427e-01
 -6.93683811e-01 -6.65265439e-01 -5.44890946e-01 -5.24322280e-01
 -4.96651416e-01  1.23597859e-02  1.79055508e-01  1.90930326e-01
  3.32704138e-01  3.56555238e-01  3.71059783e-01  3.76375273e-01
  4.34482275e-01  4.60152163e-01  4.79271528e-01  4.84812504e-01
  5.25806408e-01  5.63534093e-01  5.65361832e-01  5.72398846e-01
  6.14117228e-01  8.27296706e-01  9.13441675e-01  1.02469970e+00
  1.07219578e+00  1.08445891e+00  1.11564507e+00  1.18702520e+00
  1.25113683e+00  1.26509067e+00  1.30608244e+00  1.34673352e+00
  1.37865794e+00  1.39679970e+00  1.40018396e+00  1.49240528e+00
  1.51836018e+00  1.53536548e+00  1.58085661e+00  1.69642484e+00
  1.71464889e+00  1.75802350e+00  1.79562142e+00  1.82364387e+00
  1.85863966e+00  1.87129746e+00  1.94307754e+00  2.02560537e+00
  2.15615493e+00  2.43025302e+00  2.49473192e+00  2.52763509e+00
  2.54643507e+00  2.55559239e+00  2.64632702e+00  2.83153889e+00
  3.02340226e+00  3.05323631e+00  3.05521409e+00  3.07072688e+00
  3.11459369e+00  3.20385977e+00  3.23796072e+00  3.26473782e+00
  3.34411534e+00  3.35377133e+00  3.45993204e+00  3.48463902e+00
  3.49113804e+00  3.51076731e+00  3.62247246e+00  3.63675922e+00
  3.69320212e+00  3.70697820e+00  3.77380008e+00  3.87809058e+00
  3.88671760e+00  3.96986915e+00  3.98195489e+00  4.04686196e+00
  4.13672745e+00  4.21176570e+00  4.21218073e+00  4.29849669e+00
  4.32360047e+00  4.33842867e+00  4.44374916e+00  4.45601405e+00
  4.50137318e+00  4.58582669e+00  4.63022343e+00  4.67606147e+00
  4.72001016e+00  4.77808399e+00  4.83793695e+00  5.02370673e+00
  5.21195280e+00  5.33206484e+00  5.52846473e+00  5.55751441e+00
  5.63689588e+00  5.80167316e+00  6.63544598e+00  6.82091627e+00
  7.38561385e+00  7.40001874e+00  7.52221488e+00  7.53651712e+00
  8.39029993e+00  8.52784147e+00  8.64159485e+00  8.87788455e+00
  8.88012157e+00  8.88803296e+00  8.89023227e+00  8.90059529e+00
  8.93646098e+00  8.94421192e+00  8.95517296e+00  9.04000194e+00
  9.06337632e+00  9.13702136e+00  9.21721001e+00  9.24538979e+00
  9.37482218e+00  9.48760536e+00  9.58661087e+00  9.70580060e+00
  9.73050944e+00  9.88206412e+00  1.03950510e+01  1.18122227e+01
  1.18218914e+01  1.18377405e+01  1.18460388e+01  1.20361845e+01
  1.20639437e+01  1.21144674e+01  1.21638739e+01  1.25465030e+01
  1.25767722e+01  1.26000659e+01  1.26080074e+01  1.26774746e+01
  1.28438208e+01  1.30614109e+01  1.31231068e+01  1.31339095e+01
  1.31610172e+01  1.33450052e+01  1.33754065e+01  1.34266910e+01
  1.34917719e+01  1.38603180e+01  1.39582824e+01  1.55059838e+01
  3.28570422e+01  3.28776759e+01]
E1 = -136.73312411689244  E_coul = 60.92984002809856
cycle= 6 E= -41.4932651456282  delta_E= -7.66e-06  |g|= 0.00105  |ddm|= 0.00874
    CPU time for cycle= 6     76.21 sec, wall time      0.61 sec
  HOMO = -0.496871318425868  LUMO = 0.0124205619682136
  mo_energy =
[-1.51870891e+00 -1.41787894e+00 -8.73123661e-01 -7.01163890e-01
 -6.93883176e-01 -6.65389566e-01 -5.45249609e-01 -5.24272213e-01
 -4.96871318e-01  1.24205620e-02  1.79023648e-01  1.90911285e-01
  3.32671343e-01  3.56528610e-01  3.71095587e-01  3.76393768e-01
  4.34457052e-01  4.60180274e-01  4.79239734e-01  4.84797733e-01
  5.25719274e-01  5.63600536e-01  5.65344282e-01  5.72406585e-01
  6.14064059e-01  8.27306348e-01  9.13430505e-01  1.02464421e+00
  1.07219382e+00  1.08440220e+00  1.11564869e+00  1.18700481e+00
  1.25109757e+00  1.26514597e+00  1.30611607e+00  1.34668155e+00
  1.37866444e+00  1.39677284e+00  1.40023644e+00  1.49240820e+00
  1.51828845e+00  1.53536502e+00  1.58084815e+00  1.69635352e+00
  1.71460089e+00  1.75791839e+00  1.79557619e+00  1.82356447e+00
  1.85853725e+00  1.87121480e+00  1.94297675e+00  2.02560732e+00
  2.15613609e+00  2.43019556e+00  2.49469439e+00  2.52758609e+00
  2.54633860e+00  2.55549467e+00  2.64627560e+00  2.83144968e+00
  3.02334871e+00  3.05318699e+00  3.05522530e+00  3.07073927e+00
  3.11451701e+00  3.20387644e+00  3.23794699e+00  3.26470839e+00
  3.34409886e+00  3.35377195e+00  3.45992839e+00  3.48456730e+00
  3.49102175e+00  3.51070120e+00  3.62248492e+00  3.63675025e+00
  3.69326442e+00  3.70692793e+00  3.77378092e+00  3.87802732e+00
  3.88662454e+00  3.96985917e+00  3.98189122e+00  4.04683405e+00
  4.13664473e+00  4.21170615e+00  4.21208249e+00  4.29829890e+00
  4.32349807e+00  4.33832235e+00  4.44358746e+00  4.45581940e+00
  4.50119621e+00  4.58567357e+00  4.63013599e+00  4.67591037e+00
  4.71984968e+00  4.77790599e+00  4.83777538e+00  5.02355760e+00
  5.21179883e+00  5.33191469e+00  5.52841587e+00  5.55741281e+00
  5.63683327e+00  5.80157191e+00  6.63526879e+00  6.82073183e+00
  7.38531434e+00  7.39972153e+00  7.52194247e+00  7.53624641e+00
  8.39006041e+00  8.52761034e+00  8.64159236e+00  8.87768376e+00
  8.87991734e+00  8.88783541e+00  8.89003193e+00  8.90040915e+00
  8.93626851e+00  8.94407720e+00  8.95498412e+00  9.03979593e+00
  9.06318722e+00  9.13685012e+00  9.21704231e+00  9.24523680e+00
  9.37464964e+00  9.48742791e+00  9.58640289e+00  9.70563496e+00
  9.73035572e+00  9.88193769e+00  1.03949332e+01  1.18119315e+01
  1.18215979e+01  1.18374549e+01  1.18457526e+01  1.20359121e+01
  1.20636725e+01  1.21141915e+01  1.21635997e+01  1.25462506e+01
  1.25764662e+01  1.25997575e+01  1.26077841e+01  1.26772486e+01
  1.28435658e+01  1.30610742e+01  1.31227684e+01  1.31335705e+01
  1.31606815e+01  1.33446471e+01  1.33750504e+01  1.34264106e+01
  1.34914993e+01  1.38600256e+01  1.39579906e+01  1.55059214e+01
  3.28566109e+01  3.28772448e+01]
E1 = -136.73394743792514  E_coul = 60.9306625323915
cycle= 7 E= -41.493265962368  delta_E= -8.17e-07  |g|= 0.000217  |ddm|= 0.00327
    CPU time for cycle= 7     81.10 sec, wall time      0.65 sec
  HOMO = -0.496839983120164  LUMO = 0.0124681778574846
  mo_energy =
[-1.51868060e+00 -1.41786119e+00 -8.73088040e-01 -7.01134097e-01
 -6.93857905e-01 -6.65337308e-01 -5.45262504e-01 -5.24187250e-01
 -4.96839983e-01  1.24681779e-02  1.79045473e-01  1.90925512e-01
  3.32685239e-01  3.56550211e-01  3.71138269e-01  3.76422619e-01
  4.34460922e-01  4.60221500e-01  4.79244178e-01  4.84799105e-01
  5.25734231e-01  5.63654053e-01  5.65364050e-01  5.72424328e-01
  6.14064182e-01  8.27348886e-01  9.13467670e-01  1.02465347e+00
  1.07223126e+00  1.08440946e+00  1.11568657e+00  1.18703494e+00
  1.25112611e+00  1.26520922e+00  1.30618153e+00  1.34670851e+00
  1.37870569e+00  1.39680782e+00  1.40030367e+00  1.49244709e+00
  1.51830566e+00  1.53540262e+00  1.58087921e+00  1.69637083e+00
  1.71461211e+00  1.75792701e+00  1.79560289e+00  1.82357939e+00
  1.85855004e+00  1.87123779e+00  1.94300190e+00  2.02566736e+00
  2.15620316e+00  2.43022250e+00  2.49473351e+00  2.52762634e+00
  2.54636194e+00  2.55550889e+00  2.64631425e+00  2.83147560e+00
  3.02338643e+00  3.05322247e+00  3.05528262e+00  3.07079668e+00
  3.11455202e+00  3.20394637e+00  3.23800698e+00  3.26476428e+00
  3.34416007e+00  3.35384071e+00  3.45998957e+00  3.48458937e+00
  3.49102226e+00  3.51075863e+00  3.62255826e+00  3.63680098e+00
  3.69334238e+00  3.70696608e+00  3.77384118e+00  3.87807294e+00
  3.88666257e+00  3.96992699e+00  3.98193752e+00  4.04690802e+00
  4.13669695e+00  4.21176340e+00  4.21212500e+00  4.29830682e+00
  4.32352885e+00  4.33836004e+00  4.44359988e+00  4.45583374e+00
  4.50120382e+00  4.58569901e+00  4.63016539e+00  4.67593838e+00
  4.71986842e+00  4.77792116e+00  4.83779387e+00  5.02357622e+00
  5.21183463e+00  5.33195263e+00  5.52846860e+00  5.55744656e+00
  5.63688643e+00  5.80161360e+00  6.63530830e+00  6.82076696e+00
  7.38534016e+00  7.39974784e+00  7.52197433e+00  7.53627883e+00
  8.39010077e+00  8.52765230e+00  8.64170447e+00  8.87768282e+00
  8.87991511e+00  8.88783532e+00  8.89003113e+00  8.90041592e+00
  8.93627707e+00  8.94412486e+00  8.95499376e+00  9.03981339e+00
  9.06319662e+00  9.13688697e+00  9.21705953e+00  9.24526131e+00
  9.37466499e+00  9.48744893e+00  9.58641314e+00  9.70566357e+00
  9.73038094e+00  9.88198500e+00  1.03949994e+01  1.18119492e+01
  1.18216155e+01  1.18374748e+01  1.18457723e+01  1.20359366e+01
  1.20636963e+01  1.21142165e+01  1.21636250e+01  1.25462849e+01
  1.25764854e+01  1.25997763e+01  1.26078233e+01  1.26772861e+01
  1.28435987e+01  1.30611069e+01  1.31228009e+01  1.31336034e+01
  1.31607138e+01  1.33446773e+01  1.33750806e+01  1.34264578e+01
  1.34915480e+01  1.38600724e+01  1.39580365e+01  1.55060291e+01
  3.28566692e+01  3.28773031e+01]
E1 = -136.7338176571885  E_coul = 60.9305327144577
cycle= 8 E= -41.4932659995652  delta_E= -3.72e-08  |g|= 4.27e-05  |ddm|= 0.000812
    CPU time for cycle= 8     68.52 sec, wall time      0.56 sec
  HOMO = -0.496851886665276  LUMO = 0.0124554426141219
  mo_energy =
[-1.51869366e+00 -1.41787599e+00 -8.73098398e-01 -7.01144885e-01
 -6.93867518e-01 -6.65345070e-01 -5.45273663e-01 -5.24196007e-01
 -4.96851887e-01  1.24554426e-02  1.79039743e-01  1.90918807e-01
  3.32681439e-01  3.56543987e-01  3.71133548e-01  3.76419300e-01
  4.34458355e-01  4.60215728e-01  4.79241437e-01  4.84797021e-01
  5.25727113e-01  5.63644733e-01  5.65360625e-01  5.72421419e-01
  6.14060496e-01  8.27338096e-01  9.13459305e-01  1.02464805e+00
  1.07222588e+00  1.08440536e+00  1.11568199e+00  1.18702745e+00
  1.25111802e+00  1.26520250e+00  1.30617302e+00  1.34669954e+00
  1.37869935e+00  1.39680036e+00  1.40029701e+00  1.49244049e+00
  1.51829784e+00  1.53539581e+00  1.58087399e+00  1.69636460e+00
  1.71460661e+00  1.75792069e+00  1.79559714e+00  1.82357221e+00
  1.85854233e+00  1.87122857e+00  1.94299255e+00  2.02565797e+00
  2.15619066e+00  2.43021278e+00  2.49472359e+00  2.52761600e+00
  2.54635221e+00  2.55549981e+00  2.64630529e+00  2.83146712e+00
  3.02337896e+00  3.05321387e+00  3.05527542e+00  3.07078994e+00
  3.11454196e+00  3.20393643e+00  3.23799559e+00  3.26475310e+00
  3.34414987e+00  3.35383027e+00  3.45997945e+00  3.48458092e+00
  3.49101441e+00  3.51074520e+00  3.62254712e+00  3.63679252e+00
  3.69333349e+00  3.70695711e+00  3.77383020e+00  3.87806343e+00
  3.88665199e+00  3.96991650e+00  3.98192588e+00  4.04689535e+00
  4.13668461e+00  4.21175187e+00  4.21211196e+00  4.29829398e+00
  4.32351789e+00  4.33834798e+00  4.44358913e+00  4.45582011e+00
  4.50119228e+00  4.58568634e+00  4.63015593e+00  4.67592542e+00
  4.71985597e+00  4.77790868e+00  4.83778272e+00  5.02356461e+00
  5.21182044e+00  5.33193796e+00  5.52845771e+00  5.55743545e+00
  5.63687453e+00  5.80160094e+00  6.63529221e+00  6.82075132e+00
  7.38531904e+00  7.39972667e+00  7.52195407e+00  7.53625857e+00
  8.39008092e+00  8.52763303e+00  8.64168946e+00  8.87767109e+00
  8.87990343e+00  8.88782372e+00  8.89001949e+00  8.90040405e+00
  8.93626464e+00  8.94411012e+00  8.95498140e+00  9.03979916e+00
  9.06318432e+00  9.13687192e+00  9.21704680e+00  9.24524890e+00
  9.37465228e+00  9.48743481e+00  9.58639938e+00  9.70564966e+00
  9.73036831e+00  9.88197020e+00  1.03949823e+01  1.18119307e+01
  1.18215970e+01  1.18374565e+01  1.18457539e+01  1.20359179e+01
  1.20636777e+01  1.21141978e+01  1.21636063e+01  1.25462657e+01
  1.25764660e+01  1.25997569e+01  1.26078045e+01  1.26772675e+01
  1.28435794e+01  1.30610837e+01  1.31227778e+01  1.31335801e+01
  1.31606908e+01  1.33446534e+01  1.33750566e+01  1.34264348e+01
  1.34915249e+01  1.38600489e+01  1.39580131e+01  1.55060119e+01
  3.28566360e+01  3.28772699e+01]
E1 = -136.73388942028504  E_coul = 60.9306044770429
cycle= 9 E= -41.4932660000765  delta_E= -5.11e-10  |g|= 6.27e-06  |ddm|= 9.71e-05
    CPU time for cycle= 9     43.79 sec, wall time      0.34 sec
  HOMO = -0.496851477586242  LUMO = 0.0124560587498169
  mo_energy =
[-1.51869273e+00 -1.41787492e+00 -8.73097660e-01 -7.01144250e-01
 -6.93866741e-01 -6.65344665e-01 -5.45272594e-01 -5.24195194e-01
 -4.96851478e-01  1.24560587e-02  1.79040001e-01  1.90919309e-01
  3.32681529e-01  3.56544588e-01  3.71133909e-01  3.76419601e-01
  4.34458412e-01  4.60215924e-01  4.79241598e-01  4.84797124e-01
  5.25727525e-01  5.63645605e-01  5.65360642e-01  5.72421635e-01
  6.14060735e-01  8.27338935e-01  9.13459870e-01  1.02464852e+00
  1.07222614e+00  1.08440552e+00  1.11568210e+00  1.18702799e+00
  1.25111847e+00  1.26520301e+00  1.30617361e+00  1.34670008e+00
  1.37869980e+00  1.39680064e+00  1.40029745e+00  1.49244086e+00
  1.51829816e+00  1.53539620e+00  1.58087438e+00  1.69636485e+00
  1.71460692e+00  1.75792099e+00  1.79559752e+00  1.82357272e+00
  1.85854279e+00  1.87122936e+00  1.94299313e+00  2.02565865e+00
  2.15619134e+00  2.43021349e+00  2.49472423e+00  2.52761664e+00
  2.54635275e+00  2.55550042e+00  2.64630577e+00  2.83146759e+00
  3.02337941e+00  3.05321433e+00  3.05527570e+00  3.07079018e+00
  3.11454251e+00  3.20393734e+00  3.23799654e+00  3.26475397e+00
  3.34415052e+00  3.35383089e+00  3.45998015e+00  3.48458139e+00
  3.49101485e+00  3.51074596e+00  3.62254780e+00  3.63679304e+00
  3.69333423e+00  3.70695754e+00  3.77383089e+00  3.87806398e+00
  3.88665262e+00  3.96991716e+00  3.98192651e+00  4.04689627e+00
  4.13668547e+00  4.21175262e+00  4.21211263e+00  4.29829489e+00
  4.32351863e+00  4.33834888e+00  4.44358969e+00  4.45582112e+00
  4.50119304e+00  4.58568743e+00  4.63015628e+00  4.67592652e+00
  4.71985700e+00  4.77790951e+00  4.83778318e+00  5.02356545e+00
  5.21182154e+00  5.33193918e+00  5.52845852e+00  5.55743630e+00
  5.63687532e+00  5.80160161e+00  6.63529328e+00  6.82075248e+00
  7.38532085e+00  7.39972850e+00  7.52195587e+00  7.53626040e+00
  8.39008265e+00  8.52763463e+00  8.64169069e+00  8.87767177e+00
  8.87990414e+00  8.88782451e+00  8.89002025e+00  8.90040502e+00
  8.93626560e+00  8.94411118e+00  8.95498240e+00  9.03980022e+00
  9.06318518e+00  9.13687324e+00  9.21704794e+00  9.24524988e+00
  9.37465343e+00  9.48743627e+00  9.58640069e+00  9.70565098e+00
  9.73036942e+00  9.88197150e+00  1.03949839e+01  1.18119322e+01
  1.18215986e+01  1.18374581e+01  1.18457555e+01  1.20359196e+01
  1.20636793e+01  1.21141994e+01  1.21636078e+01  1.25462675e+01
  1.25764675e+01  1.25997585e+01  1.26078060e+01  1.26772691e+01
  1.28435809e+01  1.30610858e+01  1.31227798e+01  1.31335821e+01
  1.31606929e+01  1.33446555e+01  1.33750588e+01  1.34264369e+01
  1.34915272e+01  1.38600510e+01  1.39580154e+01  1.55060132e+01
  3.28566391e+01  3.28772730e+01]
E1 = -136.73388017760422  E_coul = 60.93059523434029
Extra cycle  E= -41.4932660000983  delta_E= -2.18e-11  |g|= 3.09e-06  |ddm|= 2.09e-05
    CPU time for scf_cycle    852.05 sec, wall time      6.99 sec
    CPU time for SCF    852.51 sec, wall time      6.99 sec
converged SCF energy = -41.4932660000983
