#INFO: **** input file is /home/nkousuke/lustre/toBeSync/turboRVB/05turbo-genius-development/turbogenius_paper/04data/sanity_checks/03pyscf_HF_turbo_VMC_via_trexio/00open_boundary/results/LiH/pyscf-HF-workflow/run.py ****

from pyscf_wrapper import Pyscf_wrapper

# input variables
pyscf_chkfile="pyscf.chk"
structure_file="LiH.xyz"

# input variables
omp_num_threads=128
charge=0
spin=0
basis="ccecp-ccpvqz"
ecp="ccecp"
scf_method="HF"
dft_xc="NA"
solver_newton=False
MP2_flag=False
CCSD_flag=False
pyscf_output="out.pyscf"
twist_average=False
exp_to_discard=0.0
kpt=[0.0, 0.0, 0.0]
kpt_grid=[1, 1, 1]
smearing_method="fermi"
smearing_sigma=0.0

pyscf_calc=Pyscf_wrapper(
                        structure_file=structure_file,
                        chkfile=pyscf_chkfile,
                        )

pyscf_calc.run_pyscf(
                  omp_num_threads=omp_num_threads,
                  charge=charge,
                  spin=spin,
                  basis=basis,
                  ecp=ecp,
                  scf_method=scf_method,
                  dft_xc=dft_xc,
                  solver_newton=solver_newton,
                  MP2_flag=MP2_flag,
                  CCSD_flag=CCSD_flag,
                  pyscf_output=pyscf_output,
                  twist_average=twist_average,
                  exp_to_discard=exp_to_discard,
                  kpt=kpt,
                  kpt_grid=kpt_grid,
                  smearing_method=smearing_method,
                  smearing_sigma=smearing_sigma
                  )
                #INFO: ******************** input file end ********************


System: uname_result(system='Linux', node='spcc-238', release='5.4.0-66-generic', version='#74-Ubuntu SMP Wed Jan 27 22:54:38 UTC 2021', machine='x86_64', processor='x86_64')  Threads 128
Python 3.7.3 (default, Mar 27 2019, 22:11:17) 
[GCC 7.3.0]
numpy 1.20.1  scipy 1.7.3
Date: Mon Dec 19 18:06:13 2022
PySCF version 2.0.1
PySCF path  /home/nkousuke/application/anaconda3/lib/python3.7/site-packages/pyscf

[CONFIG] conf_file /home/nkousuke/.pyscf_conf.py
[INPUT] verbose = 5
[INPUT] max_memory = 506338.1171875 
[INPUT] num. atoms = 2
[INPUT] num. electrons = 2
[INPUT] charge = 0
[INPUT] spin (= nelec alpha-beta = 2S) = 0
[INPUT] symmetry False subgroup None
[INPUT] Mole.unit = A
[INPUT]  1 Li     0.000000000000   0.000000000000   0.398900000000 AA    0.000000000000   0.000000000000   0.753811751089 Bohr
[INPUT]  2 H      0.000000000000   0.000000000000  -1.196800000000 AA    0.000000000000   0.000000000000  -2.261624225879 Bohr
[INPUT] ---------------- BASIS SET ---------------- 
[INPUT] l, kappa, [nprim/nctr], expnt,             c_1 c_2 ...
[INPUT] H
[INPUT] 0    0    [8    /1   ]  23.843185         0.0041149
                                10.212443         0.0104644
                                4.374164          0.0280111
                                1.873529          0.0758862
                                0.802465          0.1821062
                                0.343709          0.3485214
                                0.147217          0.3782313
                                0.063055          0.1164241
[INPUT] 0    0    [1    /1   ]  0.081856             1
[INPUT] 0    0    [1    /1   ]  0.233254             1
[INPUT] 0    0    [1    /1   ]  0.664673             1
[INPUT] 1    0    [1    /1   ]  0.284469             1
[INPUT] 1    0    [1    /1   ]  0.847159             1
[INPUT] 1    0    [1    /1   ]  2.522868             1
[INPUT] 2    0    [1    /1   ]  0.665279             1
[INPUT] 2    0    [1    /1   ]  2.048739             1
[INPUT] 3    0    [1    /1   ]  1.42146              1
[INPUT] Li
[INPUT] 0    0    [10   /1   ]  16.001258         4.34e-05
                                7.583113          -0.0007531
                                3.593693          -0.0002519
                                1.703077          0.0169674
                                0.807101          -0.0909921
                                0.382491          -0.0893155
                                0.181265          0.0294155
                                0.085903          0.364402
                                0.04071           0.5504973
                                0.019293          0.1744412
[INPUT] 0    0    [1    /1   ]  0.519693             1
[INPUT] 0    0    [1    /1   ]  0.10977              1
[INPUT] 0    0    [1    /1   ]  0.024834             1
[INPUT] 1    0    [10   /1   ]  7.004881          -0.0005306
                                3.451199          0.0012949
                                1.700353          0.0070115
                                0.837738          0.0171604
                                0.412741          0.036724
                                0.203351          0.0965042
                                0.100188          0.2211013
                                0.049361          0.3835358
                                0.02432           0.3350564
                                0.011982          0.0781453
[INPUT] 1    0    [1    /1   ]  0.207505             1
[INPUT] 1    0    [1    /1   ]  0.115823             1
[INPUT] 1    0    [1    /1   ]  0.070662             1
[INPUT] 2    0    [1    /1   ]  0.21499              1
[INPUT] 2    0    [1    /1   ]  0.089353             1
[INPUT] 2    0    [1    /1   ]  0.029817             1
[INPUT] 3    0    [1    /1   ]  0.240323             1
[INPUT] 3    0    [1    /1   ]  0.09993              1
[INPUT] 4    0    [1    /1   ]  0.19957              1

nuclear repulsion = 0.331627004399323
number of shells = 24
number of NR pGTOs = 127
number of NR cGTOs = 84
basis = ccecp-ccpvqz
ecp = ccecp
CPU time:         5.51


******** <class 'pyscf.scf.hf.RHF'> ********
method = RHF
initial guess = minao
damping factor = 0
level_shift factor = 0
DIIS = <class 'pyscf.scf.diis.CDIIS'>
diis_start_cycle = 1
diis_space = 8
SCF conv_tol = 1e-09
SCF conv_tol_grad = None
SCF max_cycles = 200
direct_scf = True
direct_scf_tol = 1e-13
chkfile to save SCF result = pyscf.chk
max_memory 506338 MB (current use 106 MB)
Set gradient conv threshold to 3.16228e-05
E1 = -1.269078817823364  E_coul = 0.44169405703698367
init E= -0.495757756387057
cond(S) = 12448.478034291084
    CPU time for initialize scf     86.41 sec, wall time      0.87 sec
  HOMO = -0.303483735617883  LUMO = -0.0292277245116657
  mo_energy =
[-0.30348374 -0.02922772  0.036239    0.036239    0.06222248  0.08671041
  0.09144263  0.09144263  0.09256629  0.09256629  0.10278127  0.13910214
  0.13910214  0.21576516  0.29043521  0.30376077  0.30376077  0.31638131
  0.31638131  0.36234701  0.37653393  0.37653393  0.38213714  0.38724289
  0.38724289  0.39749365  0.39749365  0.3992481   0.3992481   0.47358397
  0.62096584  0.78607873  0.81161608  0.81161608  0.85558832  0.85558832
  0.87589994  0.87589994  0.94545406  0.94869616  0.94869616  1.03173939
  1.03173939  1.04118359  1.04118359  1.04330186  1.04330186  1.11047828
  1.11047828  1.15945541  1.19075648  1.19075648  1.19709669  1.19709669
  1.20209194  1.3659295   1.3659295   1.50590769  1.75170334  2.43096422
  2.43096422  2.58698088  2.61811681  2.61811681  2.88155559  3.00142189
  3.00142189  3.21193549  6.17407001  6.17407001  6.18134695  6.18134695
  6.21508818  6.21508818  6.21795934  6.33139341  8.31908034  8.31908034
  8.40658588  8.40658588  8.60634423  8.75495175  8.75495175  8.90294041]
E1 = -1.5767648262785332  E_coul = 0.5018627164403316
cycle= 1 E= -0.743275105438878  delta_E= -0.248  |g|= 0.101  |ddm|= 1.48
    CPU time for cycle= 1     74.77 sec, wall time      0.59 sec
  HOMO = -0.289002094554833  LUMO = -0.00309820603765863
  mo_energy =
[-2.89002095e-01 -3.09820604e-03  3.67891478e-02  3.67891478e-02
  6.86170273e-02  9.05462868e-02  9.05462868e-02  9.32689603e-02
  9.90784570e-02  9.90784570e-02  1.11441810e-01  1.43708209e-01
  1.43708209e-01  2.32491870e-01  3.11079886e-01  3.11079886e-01
  3.14744041e-01  3.14744041e-01  3.40034591e-01  3.53011005e-01
  3.80616296e-01  3.80616296e-01  3.88565713e-01  3.95037222e-01
  3.95037222e-01  4.02650377e-01  4.02650377e-01  4.09755366e-01
  4.09755366e-01  5.05832504e-01  6.76092151e-01  8.22102875e-01
  8.53383949e-01  8.53383949e-01  8.71419249e-01  8.71419249e-01
  8.79409630e-01  8.79409630e-01  9.61212858e-01  1.00834439e+00
  1.00834439e+00  1.03964452e+00  1.03964452e+00  1.04258744e+00
  1.04258744e+00  1.04659692e+00  1.04659692e+00  1.08858002e+00
  1.08858002e+00  1.16449875e+00  1.20288812e+00  1.20288812e+00
  1.21707067e+00  1.21707067e+00  1.26882395e+00  1.43249016e+00
  1.43249016e+00  1.58684004e+00  1.90329108e+00  2.59895539e+00
  2.59895539e+00  2.61793942e+00  2.80512661e+00  2.80512661e+00
  3.05147503e+00  3.16913196e+00  3.16913196e+00  3.36804162e+00
  6.39741836e+00  6.39741836e+00  6.40610074e+00  6.40610074e+00
  6.43871614e+00  6.43871614e+00  6.44225190e+00  6.57180735e+00
  8.56139835e+00  8.56139835e+00  8.65830008e+00  8.65830008e+00
  8.85694914e+00  8.99259511e+00  8.99259511e+00  9.13931806e+00]
E1 = -1.5597429210351663  E_coul = 0.47894791557620353
cycle= 2 E= -0.74916800105964  delta_E= -0.00589  |g|= 0.018  |ddm|= 0.324
    CPU time for cycle= 2     64.99 sec, wall time      0.51 sec
  HOMO = -0.3037791426953  LUMO = -0.00236539455786621
  mo_energy =
[-3.03779143e-01 -2.36539456e-03  3.73015117e-02  3.73015117e-02
  6.87750851e-02  9.10203472e-02  9.10203472e-02  9.39197447e-02
  9.83663796e-02  9.83663796e-02  1.10157458e-01  1.44190214e-01
  1.44190214e-01  2.31763204e-01  3.12394833e-01  3.12394833e-01
  3.13340902e-01  3.13340902e-01  3.37341363e-01  3.50461340e-01
  3.81423161e-01  3.81423161e-01  3.87214813e-01  3.96475352e-01
  3.96475352e-01  3.99877482e-01  3.99877482e-01  4.09474534e-01
  4.09474534e-01  5.03448063e-01  6.72017397e-01  8.17568110e-01
  8.51710387e-01  8.51710387e-01  8.72106454e-01  8.72106454e-01
  8.82091683e-01  8.82091683e-01  9.57212439e-01  1.00114936e+00
  1.00114936e+00  1.04177987e+00  1.04177987e+00  1.04227917e+00
  1.04227917e+00  1.04755894e+00  1.04755894e+00  1.08586554e+00
  1.08586554e+00  1.16312173e+00  1.20592404e+00  1.20592404e+00
  1.21684646e+00  1.21684646e+00  1.25798104e+00  1.42663068e+00
  1.42663068e+00  1.58128895e+00  1.88025518e+00  2.57477123e+00
  2.57477123e+00  2.61736338e+00  2.77561082e+00  2.77561082e+00
  3.02334697e+00  3.14139068e+00  3.14139068e+00  3.34390623e+00
  6.35701840e+00  6.35701840e+00  6.36710557e+00  6.36710557e+00
  6.39923544e+00  6.39923544e+00  6.40290622e+00  6.51139099e+00
  8.50594831e+00  8.50594831e+00  8.59889313e+00  8.59889313e+00
  8.79802273e+00  8.93488743e+00  8.93488743e+00  9.08218735e+00]
E1 = -1.5594018803854424  E_coul = 0.47816962785869016
cycle= 3 E= -0.749605248127429  delta_E= -0.000437  |g|= 0.00469  |ddm|= 0.0961
    CPU time for cycle= 3     56.55 sec, wall time      0.44 sec
  HOMO = -0.300456685299843  LUMO = -0.00266549400626323
  mo_energy =
[-3.00456685e-01 -2.66549401e-03  3.72522325e-02  3.72522325e-02
  6.86819470e-02  9.09550452e-02  9.09550452e-02  9.39143063e-02
  9.86329356e-02  9.86329356e-02  1.10606316e-01  1.44380184e-01
  1.44380184e-01  2.31934651e-01  3.12102067e-01  3.12102067e-01
  3.13389984e-01  3.13389984e-01  3.37572396e-01  3.50620127e-01
  3.81695110e-01  3.81695110e-01  3.88108809e-01  3.96326899e-01
  3.96326899e-01  4.00527901e-01  4.00527901e-01  4.09906832e-01
  4.09906832e-01  5.04159007e-01  6.73545354e-01  8.18547762e-01
  8.52380125e-01  8.52380125e-01  8.73020788e-01  8.73020788e-01
  8.82132964e-01  8.82132964e-01  9.57833333e-01  1.00299338e+00
  1.00299338e+00  1.04196106e+00  1.04196106e+00  1.04214452e+00
  1.04214452e+00  1.04760238e+00  1.04760238e+00  1.08584659e+00
  1.08584659e+00  1.16309172e+00  1.20619970e+00  1.20619970e+00
  1.21797084e+00  1.21797084e+00  1.26053841e+00  1.42865632e+00
  1.42865632e+00  1.58395978e+00  1.88537162e+00  2.58021569e+00
  2.58021569e+00  2.61847387e+00  2.78232542e+00  2.78232542e+00
  3.02971482e+00  3.14692349e+00  3.14692349e+00  3.34913843e+00
  6.36497023e+00  6.36497023e+00  6.37518820e+00  6.37518820e+00
  6.40724458e+00  6.40724458e+00  6.41105055e+00  6.52201775e+00
  8.51585189e+00  8.51585189e+00  8.60982199e+00  8.60982199e+00
  8.80897473e+00  8.94472835e+00  8.94472835e+00  9.09199730e+00]
E1 = -1.5610384353398696  E_coul = 0.4797458371786769
cycle= 4 E= -0.749665593761869  delta_E= -6.03e-05  |g|= 0.000756  |ddm|= 0.0329
    CPU time for cycle= 4     34.71 sec, wall time      0.27 sec
  HOMO = -0.300741005824805  LUMO = -0.00284670342498375
  mo_energy =
[-3.00741006e-01 -2.84670342e-03  3.71652974e-02  3.71652974e-02
  6.86300483e-02  9.09108965e-02  9.09108965e-02  9.38068424e-02
  9.86247578e-02  9.86247578e-02  1.10655951e-01  1.44260969e-01
  1.44260969e-01  2.31826656e-01  3.11937413e-01  3.11937413e-01
  3.13251959e-01  3.13251959e-01  3.37477559e-01  3.50583312e-01
  3.81492884e-01  3.81492884e-01  3.88029765e-01  3.96187084e-01
  3.96187084e-01  4.00451774e-01  4.00451774e-01  4.09815711e-01
  4.09815711e-01  5.04084967e-01  6.73480492e-01  8.18297814e-01
  8.52113198e-01  8.52113198e-01  8.72694795e-01  8.72694795e-01
  8.81802057e-01  8.81802057e-01  9.57608984e-01  1.00282118e+00
  1.00282118e+00  1.04176179e+00  1.04176179e+00  1.04188567e+00
  1.04188567e+00  1.04738099e+00  1.04738099e+00  1.08563269e+00
  1.08563269e+00  1.16289252e+00  1.20586336e+00  1.20586336e+00
  1.21765729e+00  1.21765729e+00  1.26043247e+00  1.42847540e+00
  1.42847540e+00  1.58364552e+00  1.88515253e+00  2.58005950e+00
  2.58005950e+00  2.61806617e+00  2.78192262e+00  2.78192262e+00
  3.02928227e+00  3.14680371e+00  3.14680371e+00  3.34892936e+00
  6.36462874e+00  6.36462874e+00  6.37477398e+00  6.37477398e+00
  6.40685772e+00  6.40685772e+00  6.41062181e+00  6.52118319e+00
  8.51521947e+00  8.51521947e+00  8.60893724e+00  8.60893724e+00
  8.80806144e+00  8.94414286e+00  8.94414286e+00  9.09140135e+00]
E1 = -1.5611900920904007  E_coul = 0.47989672539835726
cycle= 5 E= -0.74966636229272  delta_E= -7.69e-07  |g|= 9.13e-05  |ddm|= 0.00726
    CPU time for cycle= 5     32.14 sec, wall time      0.25 sec
  HOMO = -0.300698768908396  LUMO = -0.00285450620413328
  mo_energy =
[-3.00698769e-01 -2.85450620e-03  3.71549570e-02  3.71549570e-02
  6.86238338e-02  9.09058884e-02  9.09058884e-02  9.37964934e-02
  9.86268226e-02  9.86268226e-02  1.10666818e-01  1.44251015e-01
  1.44251015e-01  2.31813273e-01  3.11920077e-01  3.11920077e-01
  3.13243596e-01  3.13243596e-01  3.37473933e-01  3.50580320e-01
  3.81478573e-01  3.81478573e-01  3.88027095e-01  3.96173116e-01
  3.96173116e-01  4.00450025e-01  4.00450025e-01  4.09811027e-01
  4.09811027e-01  5.04080815e-01  6.73478426e-01  8.18289196e-01
  8.52100263e-01  8.52100263e-01  8.72679930e-01  8.72679930e-01
  8.81776665e-01  8.81776665e-01  9.57595630e-01  1.00282289e+00
  1.00282289e+00  1.04174538e+00  1.04174538e+00  1.04186306e+00
  1.04186306e+00  1.04736230e+00  1.04736230e+00  1.08561506e+00
  1.08561506e+00  1.16287438e+00  1.20583970e+00  1.20583970e+00
  1.21764367e+00  1.21764367e+00  1.26044428e+00  1.42847866e+00
  1.42847866e+00  1.58364952e+00  1.88517997e+00  2.58009529e+00
  2.58009529e+00  2.61804715e+00  2.78196671e+00  2.78196671e+00
  3.02932314e+00  3.14684447e+00  3.14684447e+00  3.34896387e+00
  6.36468113e+00  6.36468113e+00  6.37482897e+00  6.37482897e+00
  6.40691140e+00  6.40691140e+00  6.41067792e+00  6.52126620e+00
  8.51529171e+00  8.51529171e+00  8.60902093e+00  8.60902093e+00
  8.80814694e+00  8.94421803e+00  8.94421803e+00  9.09147700e+00]
E1 = -1.5611718638235148  E_coul = 0.47987848825448376
cycle= 6 E= -0.749666371169708  delta_E= -8.88e-09  |g|= 1.39e-05  |ddm|= 0.00174
    CPU time for cycle= 6     28.63 sec, wall time      0.22 sec
  HOMO = -0.300707133231633  LUMO = -0.00285781620269309
  mo_energy =
[-3.00707133e-01 -2.85781620e-03  3.71537765e-02  3.71537765e-02
  6.86232376e-02  9.09050902e-02  9.09050902e-02  9.37950731e-02
  9.86260241e-02  9.86260241e-02  1.10666780e-01  1.44249291e-01
  1.44249291e-01  2.31812151e-01  3.11917799e-01  3.11917799e-01
  3.13241402e-01  3.13241402e-01  3.37471605e-01  3.50578849e-01
  3.81475336e-01  3.81475336e-01  3.88024908e-01  3.96170673e-01
  3.96170673e-01  4.00447227e-01  4.00447227e-01  4.09808396e-01
  4.09808396e-01  5.04079568e-01  6.73476224e-01  8.18285392e-01
  8.52096035e-01  8.52096035e-01  8.72674460e-01  8.72674460e-01
  8.81771809e-01  8.81771809e-01  9.57592191e-01  1.00281819e+00
  1.00281819e+00  1.04174184e+00  1.04174184e+00  1.04185875e+00
  1.04185875e+00  1.04735844e+00  1.04735844e+00  1.08561253e+00
  1.08561253e+00  1.16287184e+00  1.20583407e+00  1.20583407e+00
  1.21763772e+00  1.21763772e+00  1.26043986e+00  1.42847301e+00
  1.42847301e+00  1.58364288e+00  1.88517296e+00  2.58008706e+00
  2.58008706e+00  2.61804126e+00  2.78195744e+00  2.78195744e+00
  3.02931443e+00  3.14683687e+00  3.14683687e+00  3.34895614e+00
  6.36467104e+00  6.36467104e+00  6.37481895e+00  6.37481895e+00
  6.40690135e+00  6.40690135e+00  6.41066800e+00  6.52125579e+00
  8.51528122e+00  8.51528122e+00  8.60900993e+00  8.60900993e+00
  8.80813610e+00  8.94420794e+00  8.94420794e+00  9.09146704e+00]
E1 = -1.5611744172557567  E_coul = 0.4798810414393849
cycle= 7 E= -0.749666371417049  delta_E= -2.47e-10  |g|= 1.46e-06  |ddm|= 0.000314
    CPU time for cycle= 7     63.73 sec, wall time      0.50 sec
  HOMO = -0.300706167189346  LUMO = -0.00285765801718139
  mo_energy =
[-3.00706167e-01 -2.85765802e-03  3.71537655e-02  3.71537655e-02
  6.86232058e-02  9.09050913e-02  9.09050913e-02  9.37950544e-02
  9.86260795e-02  9.86260795e-02  1.10666898e-01  1.44249315e-01
  1.44249315e-01  2.31812071e-01  3.11917792e-01  3.11917792e-01
  3.13241455e-01  3.13241455e-01  3.37471711e-01  3.50578881e-01
  3.81475428e-01  3.81475428e-01  3.88025031e-01  3.96170713e-01
  3.96170713e-01  4.00447391e-01  4.00447391e-01  4.09808521e-01
  4.09808521e-01  5.04079600e-01  6.73476326e-01  8.18285585e-01
  8.52096220e-01  8.52096220e-01  8.72674747e-01  8.72674747e-01
  8.81771960e-01  8.81771960e-01  9.57592310e-01  1.00281853e+00
  1.00281853e+00  1.04174193e+00  1.04174193e+00  1.04185888e+00
  1.04185888e+00  1.04735854e+00  1.04735854e+00  1.08561250e+00
  1.08561250e+00  1.16287183e+00  1.20583431e+00  1.20583431e+00
  1.21763805e+00  1.21763805e+00  1.26044027e+00  1.42847346e+00
  1.42847346e+00  1.58364342e+00  1.88517365e+00  2.58008794e+00
  2.58008794e+00  2.61804155e+00  2.78195840e+00  2.78195840e+00
  3.02931534e+00  3.14683774e+00  3.14683774e+00  3.34895699e+00
  6.36467218e+00  6.36467218e+00  6.37482011e+00  6.37482011e+00
  6.40690250e+00  6.40690250e+00  6.41066915e+00  6.52125697e+00
  8.51528244e+00  8.51528244e+00  8.60901116e+00  8.60901116e+00
  8.80813733e+00  8.94420915e+00  8.94420915e+00  9.09146825e+00]
E1 = -1.5611740499775575  E_coul = 0.4798806741589248
Extra cycle  E= -0.749666371419309  delta_E= -2.26e-12  |g|= 4.35e-07  |ddm|= 1.33e-05
    CPU time for scf_cycle    528.78 sec, wall time      4.34 sec
    CPU time for SCF    528.84 sec, wall time      4.34 sec
converged SCF energy = -0.749666371419309
