#INFO: **** input file is /home/nkousuke/lustre/toBeSync/turboRVB/05turbo-genius-development/turbogenius_paper/04data/sanity_checks/02pyscf_prep_LDA_via_trexio/00open_boundary/results/Cl2/pyscf-LDA-workflow/run.py ****

from pyscf_wrapper import Pyscf_wrapper

# input variables
pyscf_chkfile="pyscf.chk"
structure_file="Cl2.xyz"

# input variables
omp_num_threads=128
charge=0
spin=0
basis="ccecp-ccpvqz"
ecp="ccecp"
scf_method="DFT"
dft_xc="LDA_X,LDA_C_PZ"
solver_newton=False
MP2_flag=False
CCSD_flag=False
pyscf_output="out.pyscf"
twist_average=False
exp_to_discard=0.1
kpt=[0.0, 0.0, 0.0]
kpt_grid=[1, 1, 1]
smearing_method="fermi"
smearing_sigma=0.0

pyscf_calc=Pyscf_wrapper(
                        structure_file=structure_file,
                        chkfile=pyscf_chkfile,
                        )

pyscf_calc.run_pyscf(
                  omp_num_threads=omp_num_threads,
                  charge=charge,
                  spin=spin,
                  basis=basis,
                  ecp=ecp,
                  scf_method=scf_method,
                  dft_xc=dft_xc,
                  solver_newton=solver_newton,
                  MP2_flag=MP2_flag,
                  CCSD_flag=CCSD_flag,
                  pyscf_output=pyscf_output,
                  twist_average=twist_average,
                  exp_to_discard=exp_to_discard,
                  kpt=kpt,
                  kpt_grid=kpt_grid,
                  smearing_method=smearing_method,
                  smearing_sigma=smearing_sigma
                  )
                #INFO: ******************** input file end ********************


System: uname_result(system='Linux', node='spcc-106', release='5.4.0-66-generic', version='#74-Ubuntu SMP Wed Jan 27 22:54:38 UTC 2021', machine='x86_64', processor='x86_64')  Threads 128
Python 3.7.3 (default, Mar 27 2019, 22:11:17) 
[GCC 7.3.0]
numpy 1.20.1  scipy 1.7.3
Date: Thu Dec 22 06:21:21 2022
PySCF version 2.0.1
PySCF path  /home/nkousuke/application/anaconda3/lib/python3.7/site-packages/pyscf

[CONFIG] conf_file /home/nkousuke/.pyscf_conf.py
[INPUT] verbose = 5
[INPUT] max_memory = 506487.85546875 
[INPUT] num. atoms = 2
[INPUT] num. electrons = 14
[INPUT] charge = 0
[INPUT] spin (= nelec alpha-beta = 2S) = 0
[INPUT] symmetry False subgroup None
[INPUT] Mole.unit = A
[INPUT]  1 Cl     0.000000000000   0.000000000000   0.993950000000 AA    0.000000000000   0.000000000000   1.878293281511 Bohr
[INPUT]  2 Cl     0.000000000000   0.000000000000  -0.993950000000 AA    0.000000000000   0.000000000000  -1.878293281511 Bohr
[INPUT] ---------------- BASIS SET ---------------- 
[INPUT] l, kappa, [nprim/nctr], expnt,             c_1 c_2 ...
[INPUT] Cl
[INPUT] 0    0    [10   /1   ]  15.583847         0.002501
                                8.858485          -0.010046
                                5.035519          0.08581
                                2.862391          -0.290136
                                1.627098          -0.140314
                                0.924908          0.146839
                                0.525755          0.392484
                                0.29886           0.425061
                                0.169884          0.227195
                                0.096569          0.059828
[INPUT] 0    0    [1    /1   ]  1.038268             1
[INPUT] 0    0    [1    /1   ]  0.418863             1
[INPUT] 0    0    [1    /1   ]  0.16898              1
[INPUT] 1    0    [10   /1   ]  7.682894          -0.004609
                                4.507558          -0.001798
                                2.644587          -0.068614
                                1.551581          0.062352
                                0.910313          0.166337
                                0.534081          0.282292
                                0.313346          0.275967
                                0.18384           0.241328
                                0.107859          0.110223
                                0.063281          0.040289
[INPUT] 1    0    [1    /1   ]  2.626653             1
[INPUT] 1    0    [1    /1   ]  1.069041             1
[INPUT] 1    0    [1    /1   ]  0.435097             1
[INPUT] 2    0    [1    /1   ]  2.102692             1
[INPUT] 2    0    [1    /1   ]  0.763188             1
[INPUT] 2    0    [1    /1   ]  0.277005             1
[INPUT] 3    0    [1    /1   ]  1.139446             1
[INPUT] 3    0    [1    /1   ]  0.434852             1
[INPUT] 4    0    [1    /1   ]  0.844301             1

nuclear repulsion = 13.043756393722
number of shells = 28
number of NR pGTOs = 180
number of NR cGTOs = 108
basis = ccecp-ccpvqz
ecp = ccecp
CPU time:         6.61


******** <class 'pyscf.df.df_jk.density_fit.<locals>.DFHF'> ********
method = DFHF-RKS-RHF
initial guess = minao
damping factor = 0
level_shift factor = 0
DIIS = <class 'pyscf.scf.diis.CDIIS'>
diis_start_cycle = 1
diis_space = 8
SCF conv_tol = 1e-09
SCF conv_tol_grad = None
SCF max_cycles = 200
direct_scf = True
direct_scf_tol = 1e-13
chkfile to save SCF result = pyscf.chk
max_memory 506487 MB (current use 106 MB)
XC library pyscf.dft.libxc version 5.1.7
    S. Lehtola, C. Steigemann, M. J. Oliveira, and M. A. Marques, SoftwareX 7, 1 (2018)
XC functionals = LDA_X,LDA_C_PZ
    P. A. M. Dirac, Math. Proc. Cambridge Philos. Soc. 26, 376 (1930)
    F. Bloch, Z. Phys. 57, 545 (1929)
    J. P. Perdew and A. Zunger, Phys. Rev. B 23, 5048 (1981)
radial grids: 
    Treutler-Ahlrichs [JCP 102, 346 (1995); DOI:10.1063/1.469408] (M4) radial grids
    
becke partition: Becke, JCP 88, 2547 (1988); DOI:10.1063/1.454033
pruning grids: <function nwchem_prune at 0x14db128647b8>
grids dens level: 3
symmetrized grids: False
atomic radii adjust function: <function treutler_atomic_radii_adjust at 0x14db128646a8>
small_rho_cutoff = 1e-07
Set gradient conv threshold to 3.16228e-05
atom Cl rad-grids = 80, ang-grids = [ 50  50  50  50  50  50  50  50  50  50  50  50  50  50  50  50  50  50
  50  50  50  50  50  50  86  86  86  86  86  86  86  86  86  86  86  86
  86 350 350 350 350 350 350 350 350 350 434 434 434 434 434 434 434 434
 434 434 434 434 434 434 434 434 434 434 350 350 350 350 350 350 350 350
 350 350 350 350 350 350 350 350]
tot grids = 37760
Drop grids 2146
    CPU time for setting up grids     34.97 sec, wall time      0.33 sec
nelec by numeric integration = 14.000000214793602
    CPU time for vxc     38.05 sec, wall time      0.30 sec
Even tempered Gaussians are generated as DF auxbasis for  Cl
  ETB auxbasis for Cl  [[0, [24.721664, 1]], [0, [12.360832, 1]], [0, [6.180416, 1]], [0, [3.090208, 1]], [0, [1.545104, 1]], [0, [0.772552, 1]], [0, [0.386276, 1]], [0, [0.193138, 1]], [1, [20.012230625632515, 1]], [1, [10.006115312816258, 1]], [1, [5.003057656408129, 1]], [1, [2.5015288282040644, 1]], [1, [1.2507644141020322, 1]], [1, [0.6253822070510161, 1]], [1, [0.31269110352550805, 1]], [1, [0.15634555176275403, 1]], [2, [8.099968, 1]], [2, [4.049984, 1]], [2, [2.024992, 1]], [2, [1.012496, 1]], [2, [0.506248, 1]], [2, [0.253124, 1]], [2, [0.126562, 1]], [3, [4.236726694834115, 1]], [3, [2.1183633474170573, 1]], [3, [1.0591816737085287, 1]], [3, [0.5295908368542643, 1]], [3, [0.26479541842713217, 1]], [4, [4.43208, 1]], [4, [2.21604, 1]], [4, [1.10802, 1]], [4, [0.55401, 1]]]
num shells = 64, num cGTOs = 276
    CPU time for df-vj     35.79 sec, wall time      0.28 sec
E1 = -75.30587876585665  Ecoul = 38.02633930878567  Exc = -5.617040626917889
init E= -29.8528236902668
cond(S) = 3555.7758599981353
    CPU time for initialize scf    218.38 sec, wall time      1.90 sec
  HOMO = -0.26913621101504  LUMO = -0.137579912939637
  mo_energy =
[-0.85859027 -0.70840648 -0.42308499 -0.36797286 -0.36797286 -0.26913621
 -0.26913621 -0.13757991  0.17630071  0.19724778  0.19724778  0.22727525
  0.23229701  0.23229703  0.31047667  0.33895608  0.33895608  0.33896384
  0.33896393  0.38301545  0.38301545  0.45510333  0.56499526  0.56499526
  0.57150344  0.82941945  1.10471042  1.10471073  1.16143915  1.16143915
  1.16197344  1.19755474  1.19755474  1.27574775  1.27574808  1.30880925
  1.30880979  1.30991452  1.30991452  1.33604156  1.37517484  1.37517484
  1.43084143  1.43084143  1.51906007  1.57185589  1.57185714  1.96103518
  1.96103518  1.99679031  2.27369605  2.27369605  2.28291333  2.46494144
  2.46494144  2.57511842  2.82084232  3.25236993  3.25236993  3.2785994
  3.27860107  3.31307988  3.32110311  3.41486921  3.41486921  3.51244184
  3.51244439  3.53602764  3.5360302   3.61836199  3.61836199  3.78800592
  3.78800695  3.86405949  3.86405949  3.87499568  3.8749965   3.92780088
  3.92780088  3.93279878  3.93279878  3.98733276  4.07631946  4.09210632
  4.09210632  4.21453943  4.21454121  4.26290428  4.5378623   4.53788655
  4.60665785  4.6066835   4.68781673  4.68781673  4.70313353  4.70313353
  4.87902207  4.87902207  5.28024965  5.64197522 10.78806692 10.78806692
 10.95775071 10.95775071 10.98571066 11.69673248 16.87123369 17.40425428]
nelec by numeric integration = 14.000000255761389
    CPU time for vxc     32.21 sec, wall time      0.25 sec
    CPU time for df-vj      3.06 sec, wall time      0.03 sec
E1 = -75.04552227339332  Ecoul = 37.841687061943006  Exc = -5.611054387238181
cycle= 1 E= -29.7711332049665  delta_E= 0.0817  |g|= 0.12  |ddm|= 2.58
    CPU time for cycle= 1     66.97 sec, wall time      0.60 sec
  HOMO = -0.270305169161874  LUMO = -0.165412453850221
  mo_energy =
[-0.88769556 -0.71868909 -0.45277374 -0.37529824 -0.37529824 -0.27030517
 -0.27030517 -0.16541245  0.15772612  0.18008992  0.18008992  0.22059946
  0.2319766   0.23197661  0.30392345  0.33838411  0.33838411  0.34199103
  0.34199112  0.37346878  0.37346878  0.43823466  0.55776651  0.55875373
  0.55875373  0.81748181  1.09465313  1.09465342  1.13932821  1.14083088
  1.14083088  1.20139344  1.20139344  1.27297751  1.27297785  1.30481792
  1.30481852  1.31583908  1.31583908  1.31821246  1.3565788   1.3565788
  1.41140549  1.41140549  1.50048714  1.56817786  1.56817918  1.95726669
  1.95726669  1.97016485  2.25403469  2.26946804  2.26946804  2.45393307
  2.45393307  2.56725789  2.81324075  3.21962761  3.21962761  3.25829506
  3.2582968   3.28241042  3.28322696  3.40732341  3.40732341  3.51981537
  3.51981801  3.54358077  3.54358342  3.60879124  3.60879124  3.764913
  3.764914    3.85895435  3.85895521  3.86481271  3.86481271  3.89825204
  3.89825204  3.9364725   3.9364725   3.95865249  4.06411267  4.06664319
  4.06664319  4.20265916  4.20266112  4.23027018  4.53154999  4.53157469
  4.60153813  4.60156431  4.67153582  4.67153582  4.69068201  4.69068201
  4.84976604  4.84976604  5.26493255  5.59078696 10.77278483 10.77278483
 10.94205871 10.94205871 10.95908808 11.67399896 16.85358976 17.38604679]
nelec by numeric integration = 14.00000025985035
    CPU time for vxc     38.67 sec, wall time      0.31 sec
    CPU time for df-vj      2.05 sec, wall time      0.01 sec
E1 = -75.26533636113035  Ecoul = 38.08228731822342  Exc = -5.633806061643126
cycle= 2 E= -29.773098710828  delta_E= -0.00197  |g|= 0.0764  |ddm|= 0.215
    CPU time for cycle= 2     98.48 sec, wall time      0.78 sec
  HOMO = -0.263489846344751  LUMO = -0.153736909585485
  mo_energy =
[-0.86865878 -0.71069643 -0.44170694 -0.36471259 -0.36471259 -0.26348985
 -0.26348985 -0.15373691  0.16863566  0.18963269  0.18963269  0.22198354
  0.23929866  0.23929867  0.30674749  0.3434865   0.3434865   0.3473231
  0.34732318  0.38072302  0.38072302  0.4488883   0.56336096  0.56336096
  0.5653365   0.82300158  1.10317251  1.1031728   1.15047378  1.1512594
  1.1512594   1.20702135  1.20702135  1.28137366  1.28137396  1.31275065
  1.31275121  1.32039157  1.32039157  1.3247965   1.36721169  1.36721169
  1.42271737  1.42271737  1.51040522  1.574019    1.57402031  1.96148169
  1.96148169  1.98266842  2.26757124  2.27802209  2.27802209  2.46356494
  2.46356494  2.57516997  2.8187445   3.23563822  3.23563822  3.26942964
  3.26943134  3.2967814   3.30224839  3.41598974  3.41598974  3.52627242
  3.52627508  3.54997081  3.54997348  3.6191943   3.6191943   3.78092069
  3.78092173  3.87102122  3.87102201  3.87413015  3.87413015  3.91554672
  3.91554672  3.94378451  3.94378451  3.97249307  4.07187402  4.07903743
  4.07903743  4.20993017  4.209932    4.24548656  4.54219114  4.54221589
  4.6116463   4.61167253  4.68353602  4.68353602  4.70009324  4.70009324
  4.86249111  4.86249111  5.27408201  5.61530984 10.78626269 10.78626269
 10.95546221 10.95546221 10.97561546 11.68771362 16.86851358 17.40160783]
nelec by numeric integration = 14.00000025602731
    CPU time for vxc     39.69 sec, wall time      0.32 sec
    CPU time for df-vj      2.05 sec, wall time      0.02 sec
E1 = -75.08633106054805  Ecoul = 37.88168865833462  Exc = -5.613349597706494
cycle= 3 E= -29.7742356061979  delta_E= -0.00114  |g|= 0.0379  |ddm|= 0.173
    CPU time for cycle= 3     99.46 sec, wall time      0.78 sec
  HOMO = -0.265914787287451  LUMO = -0.155430096112668
  mo_energy =
[-0.87340071 -0.71244225 -0.44266367 -0.36828192 -0.36828192 -0.26591479
 -0.26591479 -0.1554301   0.16614646  0.18769556  0.18769556  0.22263477
  0.23629867  0.23629869  0.3066851   0.34146609  0.34146609  0.34494022
  0.34494031  0.37868727  0.37868727  0.44630392  0.56236758  0.56236758
  0.56381634  0.82228903  1.1008337   1.10083398  1.14841376  1.14926157
  1.14926157  1.2043021   1.2043021   1.27823499  1.27823533  1.30991071
  1.3099113   1.31796943  1.31796943  1.32447449  1.36488165  1.36488165
  1.42023616  1.42023616  1.50828079  1.57218869  1.57219     1.96048578
  1.96048578  1.98069306  2.26517088  2.27510243  2.27510243  2.46078292
  2.46078292  2.57294674  2.81782009  3.23257042  3.23257042  3.26720299
  3.26720471  3.29408214  3.29846675  3.41347818  3.41347818  3.52299475
  3.5229974   3.54670541  3.54670808  3.61592794  3.61592794  3.77662192
  3.77662296  3.86791846  3.86791934  3.8702803   3.8702803   3.91153491
  3.91153491  3.94068381  3.94068381  3.97012317  4.07038668  4.07685452
  4.07685452  4.2086581   4.20866002  4.24284211  4.53856669  4.53859136
  4.60814274  4.60816887  4.68065061  4.68065061  4.69808917  4.69808917
  4.86051429  4.86051429  5.27251155  5.61070949 10.78251111 10.78251111
 10.95177911 10.95177911 10.97227109 11.68528271 16.86476109 17.39758629]
nelec by numeric integration = 14.000000257268384
    CPU time for vxc     37.01 sec, wall time      0.30 sec
    CPU time for df-vj      3.57 sec, wall time      0.03 sec
E1 = -75.14144241596937  Ecoul = 37.94201804484792  Exc = -5.61899284716688
cycle= 4 E= -29.7746608245663  delta_E= -0.000425  |g|= 0.00123  |ddm|= 0.0504
    CPU time for cycle= 4    110.94 sec, wall time      0.88 sec
  HOMO = -0.266316205563801  LUMO = -0.155823677787975
  mo_energy =
[-0.87385283 -0.71291455 -0.44309819 -0.36865163 -0.36865163 -0.26631621
 -0.26631621 -0.15582368  0.16587189  0.18737403  0.18737403  0.2224512
  0.23601145  0.23601147  0.30644454  0.34122997  0.34122997  0.34462183
  0.34462192  0.37841925  0.37841925  0.44601604  0.56206358  0.56206358
  0.56350924  0.82201838  1.10055983  1.10056012  1.14809055  1.14895443
  1.14895443  1.20405478  1.20405478  1.27781608  1.27781641  1.30952241
  1.30952301  1.31771279  1.31771279  1.32408137  1.36450618  1.36450618
  1.41983052  1.41983052  1.50798454  1.57189223  1.57189354  1.96018167
  1.96018167  1.98028793  2.26472886  2.27466183  2.27466183  2.46035685
  2.46035685  2.57251661  2.81736999  3.23217298  3.23217298  3.26682595
  3.26682764  3.29366655  3.2980305   3.41310248  3.41310248  3.5226228
  3.5226255   3.54633282  3.54633553  3.61555795  3.61555795  3.77620151
  3.77620249  3.86742853  3.8674293   3.8697888   3.8697888   3.91106521
  3.91106521  3.94018681  3.94018681  3.96962931  4.06993511  4.07635938
  4.07635938  4.2082071   4.20820894  4.24231968  4.53800642  4.5380311
  4.60758745  4.6076136   4.68011375  4.68011375  4.69756511  4.69756511
  4.86006511  4.86006511  5.27201836  5.61015988 10.78183963 10.78183963
 10.95111008 10.95111008 10.97160291 11.68461827 16.86405115 17.39687689]
nelec by numeric integration = 14.000000257454587
    CPU time for vxc     35.79 sec, wall time      0.28 sec
    CPU time for df-vj      3.55 sec, wall time      0.03 sec
E1 = -75.14511658608849  Ecoul = 37.946490137081994  Exc = -5.619791135136653
cycle= 5 E= -29.7746611904211  delta_E= -3.66e-07  |g|= 0.000461  |ddm|= 0.00803
    CPU time for cycle= 5     82.20 sec, wall time      0.65 sec
  HOMO = -0.266219196768201  LUMO = -0.155722481729228
  mo_energy =
[-0.87373951 -0.71279828 -0.44299496 -0.36855983 -0.36855983 -0.2662192
 -0.2662192  -0.15572248  0.1659367   0.18745068  0.18745068  0.22249386
  0.23608016  0.23608018  0.30650092  0.34128562  0.34128562  0.34469625
  0.34469634  0.37848501  0.37848501  0.44608596  0.56213434  0.56213434
  0.56358722  0.82208472  1.10062398  1.10062427  1.14816744  1.14902731
  1.14902731  1.20411107  1.20411107  1.27792102  1.27792136  1.30961896
  1.30961956  1.31777015  1.31777015  1.32417951  1.36460094  1.36460094
  1.41993302  1.41993302  1.50805665  1.57196152  1.57196284  1.96025179
  1.96025179  1.98038645  2.26484239  2.27477219  2.27477219  2.46046562
  2.46046562  2.57262556  2.81748103  3.23226744  3.23226744  3.2669156
  3.26691728  3.29377553  3.29813342  3.41319183  3.41319183  3.52271124
  3.52271394  3.54642137  3.54642409  3.61564966  3.61564966  3.77630892
  3.7763099   3.8675525   3.86755324  3.86991287  3.86991287  3.91118358
  3.91118358  3.9403088   3.9403088   3.96975326  4.07004577  4.07648507
  4.07648507  4.20831639  4.20831821  4.24245477  4.53815135  4.53817604
  4.60773048  4.60775664  4.68025205  4.68025205  4.69769739  4.69769739
  4.860177    4.860177    5.27214055  5.61029898 10.78201939 10.78201939
 10.95128939 10.95128939 10.97178342 11.68479673 16.86424501 17.39707109]
nelec by numeric integration = 14.000000257400279
    CPU time for vxc     28.57 sec, wall time      0.22 sec
    CPU time for df-vj      2.00 sec, wall time      0.01 sec
E1 = -75.14407719842526  Ecoul = 37.94523637418019  Exc = -5.619576817365379
cycle= 6 E= -29.7746612478884  delta_E= -5.75e-08  |g|= 2.56e-06  |ddm|= 0.00212
    CPU time for cycle= 6     50.10 sec, wall time      0.39 sec
  HOMO = -0.266219722828569  LUMO = -0.155723141682001
  mo_energy =
[-0.8737403  -0.7127989  -0.44299561 -0.36856045 -0.36856045 -0.26621972
 -0.26621972 -0.15572314  0.16593617  0.18745013  0.18745013  0.22249368
  0.23607964  0.23607965  0.30650068  0.34128519  0.34128519  0.34469578
  0.34469587  0.37848454  0.37848454  0.44608547  0.56213382  0.56213382
  0.56358664  0.82208439  1.10062346  1.10062375  1.14816696  1.14902681
  1.14902681  1.2041106   1.2041106   1.27792043  1.27792076  1.30961839
  1.30961899  1.31776972  1.31776972  1.32417899  1.36460039  1.36460039
  1.4199323   1.4199323   1.50805613  1.571961    1.57196232  1.96025132
  1.96025132  1.98038577  2.2648417   2.2747716   2.2747716   2.46046492
  2.46046492  2.57262492  2.81748048  3.23226672  3.23226672  3.26691494
  3.26691662  3.29377473  3.2981327   3.41319127  3.41319127  3.52271076
  3.52271347  3.54642089  3.54642361  3.61564902  3.61564902  3.77630822
  3.77630918  3.8675518   3.86755254  3.86991224  3.86991224  3.91118287
  3.91118287  3.94030824  3.94030824  3.96975252  4.07004519  4.07648432
  4.07648432  4.20831574  4.20831755  4.242454    4.53815062  4.53817531
  4.60772976  4.60775592  4.68025133  4.68025133  4.69769673  4.69769673
  4.86017622  4.86017622  5.2721399   5.61029814 10.78201855 10.78201855
 10.95128854 10.95128854 10.97178266 11.68479601 16.86424419 17.39707025]
nelec by numeric integration = 14.000000257400542
    CPU time for vxc     35.62 sec, wall time      0.28 sec
    CPU time for df-vj      8.13 sec, wall time      0.06 sec
E1 = -75.1440828224676  Ecoul = 37.94524279185944  Exc = -5.61957761100398
cycle= 7 E= -29.7746612478901  delta_E= -1.68e-12  |g|= 3.14e-07  |ddm|= 6.77e-06
    CPU time for cycle= 7     64.86 sec, wall time      0.51 sec
  HOMO = -0.266219593762817  LUMO = -0.155723011070636
  mo_energy =
[-0.87374011 -0.71279876 -0.44299548 -0.36856031 -0.36856031 -0.26621959
 -0.26621959 -0.15572301  0.16593629  0.18745025  0.18745025  0.22249373
  0.23607975  0.23607977  0.30650075  0.34128528  0.34128528  0.34469589
  0.34469598  0.37848464  0.37848464  0.44608558  0.56213391  0.56213391
  0.56358676  0.82208448  1.10062358  1.10062387  1.14816708  1.14902692
  1.14902692  1.2041107   1.2041107   1.27792057  1.2779209   1.30961852
  1.30961911  1.31776981  1.31776981  1.3241791   1.36460051  1.36460051
  1.41993245  1.41993245  1.50805624  1.57196111  1.57196243  1.96025141
  1.96025141  1.98038591  2.26484185  2.27477174  2.27477174  2.46046507
  2.46046507  2.57262506  2.8174806   3.23226687  3.23226687  3.26691508
  3.26691675  3.29377489  3.29813287  3.4131914   3.4131914   3.52271089
  3.5227136   3.54642102  3.54642375  3.61564917  3.61564917  3.77630838
  3.77630935  3.86755197  3.86755271  3.8699124   3.8699124   3.91118304
  3.91118304  3.94030839  3.94030839  3.96975268  4.07004532  4.07648447
  4.07648447  4.20831588  4.20831769  4.24245417  4.5381508   4.53817549
  4.60772994  4.60775609  4.68025151  4.68025151  4.69769689  4.69769689
  4.86017637  4.86017637  5.27214005  5.61029835 10.78201875 10.78201875
 10.95128874 10.95128874 10.97178287 11.6847962  16.8642444  17.39707046]
nelec by numeric integration = 14.000000257400476
    CPU time for vxc     34.09 sec, wall time      0.27 sec
    CPU time for df-vj      7.54 sec, wall time      0.06 sec
E1 = -75.14408126010875  Ecoul = 37.94524098417026  Exc = -5.619577365673653
Extra cycle  E= -29.7746612478901  delta_E= -7.11e-15  |g|= 3.92e-07  |ddm|= 2.32e-06
    CPU time for scf_cycle    836.80 sec, wall time      6.86 sec
    CPU time for SCF    837.26 sec, wall time      6.86 sec
converged SCF energy = -29.7746612478901
