#INFO: **** input file is /home/nkousuke/lustre/toBeSync/turboRVB/05turbo-genius-development/turbogenius_paper/04data/sanity_checks/02pyscf_prep_LDA_via_trexio/00open_boundary/results/ClF/pyscf-LDA-workflow/run.py ****

from pyscf_wrapper import Pyscf_wrapper

# input variables
pyscf_chkfile="pyscf.chk"
structure_file="ClF.xyz"

# input variables
omp_num_threads=128
charge=0
spin=0
basis="ccecp-ccpvqz"
ecp="ccecp"
scf_method="DFT"
dft_xc="LDA_X,LDA_C_PZ"
solver_newton=False
MP2_flag=False
CCSD_flag=False
pyscf_output="out.pyscf"
twist_average=False
exp_to_discard=0.1
kpt=[0.0, 0.0, 0.0]
kpt_grid=[1, 1, 1]
smearing_method="fermi"
smearing_sigma=0.0

pyscf_calc=Pyscf_wrapper(
                        structure_file=structure_file,
                        chkfile=pyscf_chkfile,
                        )

pyscf_calc.run_pyscf(
                  omp_num_threads=omp_num_threads,
                  charge=charge,
                  spin=spin,
                  basis=basis,
                  ecp=ecp,
                  scf_method=scf_method,
                  dft_xc=dft_xc,
                  solver_newton=solver_newton,
                  MP2_flag=MP2_flag,
                  CCSD_flag=CCSD_flag,
                  pyscf_output=pyscf_output,
                  twist_average=twist_average,
                  exp_to_discard=exp_to_discard,
                  kpt=kpt,
                  kpt_grid=kpt_grid,
                  smearing_method=smearing_method,
                  smearing_sigma=smearing_sigma
                  )
                #INFO: ******************** input file end ********************


System: uname_result(system='Linux', node='spcc-205', release='5.4.0-66-generic', version='#74-Ubuntu SMP Wed Jan 27 22:54:38 UTC 2021', machine='x86_64', processor='x86_64')  Threads 128
Python 3.7.3 (default, Mar 27 2019, 22:11:17) 
[GCC 7.3.0]
numpy 1.20.1  scipy 1.7.3
Date: Thu Dec 22 06:18:53 2022
PySCF version 2.0.1
PySCF path  /home/nkousuke/application/anaconda3/lib/python3.7/site-packages/pyscf

[CONFIG] conf_file /home/nkousuke/.pyscf_conf.py
[INPUT] verbose = 5
[INPUT] max_memory = 507475.734375 
[INPUT] num. atoms = 2
[INPUT] num. electrons = 14
[INPUT] charge = 0
[INPUT] spin (= nelec alpha-beta = 2S) = 0
[INPUT] symmetry False subgroup None
[INPUT] Mole.unit = A
[INPUT]  1 F      0.000000000000   0.000000000000  -1.064500000000 AA    0.000000000000   0.000000000000  -2.011613459600 Bohr
[INPUT]  2 Cl     0.000000000000   0.000000000000   0.563500000000 AA    0.000000000000   0.000000000000   1.064860671192 Bohr
[INPUT] ---------------- BASIS SET ---------------- 
[INPUT] l, kappa, [nprim/nctr], expnt,             c_1 c_2 ...
[INPUT] Cl
[INPUT] 0    0    [10   /1   ]  15.583847         0.002501
                                8.858485          -0.010046
                                5.035519          0.08581
                                2.862391          -0.290136
                                1.627098          -0.140314
                                0.924908          0.146839
                                0.525755          0.392484
                                0.29886           0.425061
                                0.169884          0.227195
                                0.096569          0.059828
[INPUT] 0    0    [1    /1   ]  1.038268             1
[INPUT] 0    0    [1    /1   ]  0.418863             1
[INPUT] 0    0    [1    /1   ]  0.16898              1
[INPUT] 1    0    [10   /1   ]  7.682894          -0.004609
                                4.507558          -0.001798
                                2.644587          -0.068614
                                1.551581          0.062352
                                0.910313          0.166337
                                0.534081          0.282292
                                0.313346          0.275967
                                0.18384           0.241328
                                0.107859          0.110223
                                0.063281          0.040289
[INPUT] 1    0    [1    /1   ]  2.626653             1
[INPUT] 1    0    [1    /1   ]  1.069041             1
[INPUT] 1    0    [1    /1   ]  0.435097             1
[INPUT] 2    0    [1    /1   ]  2.102692             1
[INPUT] 2    0    [1    /1   ]  0.763188             1
[INPUT] 2    0    [1    /1   ]  0.277005             1
[INPUT] 3    0    [1    /1   ]  1.139446             1
[INPUT] 3    0    [1    /1   ]  0.434852             1
[INPUT] 4    0    [1    /1   ]  0.844301             1
[INPUT] F
[INPUT] 0    0    [10   /1   ]  84.048652         -2.8e-06
                                41.094617         -0.0003543
                                20.092738         0.0184088
                                9.824112          -0.1277661
                                4.803386          -0.0702872
                                2.34856           0.1571604
                                1.148301          0.3769012
                                0.561449          0.4095165
                                0.274514          0.1970893
                                0.13422           0.0243482
[INPUT] 0    0    [1    /1   ]  1.705653             1
[INPUT] 0    0    [1    /1   ]  1.048013             1
[INPUT] 0    0    [1    /1   ]  0.294345             1
[INPUT] 1    0    [10   /1   ]  31.642619         0.0029673
                                16.243233         0.0298049
                                8.338204          0.0669489
                                4.280284          0.133779
                                2.197215          0.2148312
                                1.127906          0.2664862
                                0.578992          0.2618954
                                0.297216          0.1920217
                                0.152571          0.0828465
                                0.07832           0.0133046
[INPUT] 1    0    [1    /1   ]  1.650688             1
[INPUT] 1    0    [1    /1   ]  0.64724              1
[INPUT] 1    0    [1    /1   ]  0.205806             1
[INPUT] 2    0    [1    /1   ]  4.998085             1
[INPUT] 2    0    [1    /1   ]  1.724392             1
[INPUT] 2    0    [1    /1   ]  0.587354             1
[INPUT] 3    0    [1    /1   ]  3.694285             1
[INPUT] 3    0    [1    /1   ]  1.178147             1
[INPUT] 4    0    [1    /1   ]  2.406583             1

nuclear repulsion = 15.9273239158968
number of shells = 28
number of NR pGTOs = 180
number of NR cGTOs = 108
basis = ccecp-ccpvqz
ecp = ccecp
CPU time:         4.14


******** <class 'pyscf.df.df_jk.density_fit.<locals>.DFHF'> ********
method = DFHF-RKS-RHF
initial guess = minao
damping factor = 0
level_shift factor = 0
DIIS = <class 'pyscf.scf.diis.CDIIS'>
diis_start_cycle = 1
diis_space = 8
SCF conv_tol = 1e-09
SCF conv_tol_grad = None
SCF max_cycles = 200
direct_scf = True
direct_scf_tol = 1e-13
chkfile to save SCF result = pyscf.chk
max_memory 507475 MB (current use 106 MB)
XC library pyscf.dft.libxc version 5.1.7
    S. Lehtola, C. Steigemann, M. J. Oliveira, and M. A. Marques, SoftwareX 7, 1 (2018)
XC functionals = LDA_X,LDA_C_PZ
    P. A. M. Dirac, Math. Proc. Cambridge Philos. Soc. 26, 376 (1930)
    F. Bloch, Z. Phys. 57, 545 (1929)
    J. P. Perdew and A. Zunger, Phys. Rev. B 23, 5048 (1981)
radial grids: 
    Treutler-Ahlrichs [JCP 102, 346 (1995); DOI:10.1063/1.469408] (M4) radial grids
    
becke partition: Becke, JCP 88, 2547 (1988); DOI:10.1063/1.454033
pruning grids: <function nwchem_prune at 0x14c0567687b8>
grids dens level: 3
symmetrized grids: False
atomic radii adjust function: <function treutler_atomic_radii_adjust at 0x14c0567686a8>
small_rho_cutoff = 1e-07
Set gradient conv threshold to 3.16228e-05
atom F rad-grids = 75, ang-grids = [ 50  50  50  50  50  50  50  50  50  50  50  50  50  50  50  50  50  50
  50  50  50  86  86  86  86  86  86  86  86  86 266 266 266 266 266 266
 302 302 302 302 302 302 302 302 302 302 302 302 302 302 302 302 302 302
 266 266 266 266 266 266 266 266 266 266 266 266 266 266 266 266 266 266
 266 266 266]
atom Cl rad-grids = 80, ang-grids = [ 50  50  50  50  50  50  50  50  50  50  50  50  50  50  50  50  50  50
  50  50  50  50  50  50  86  86  86  86  86  86  86  86  86  86  86  86
  86 350 350 350 350 350 350 350 350 350 434 434 434 434 434 434 434 434
 434 434 434 434 434 434 434 434 434 434 350 350 350 350 350 350 350 350
 350 350 350 350 350 350 350 350]
tot grids = 33322
Drop grids 2199
    CPU time for setting up grids     40.70 sec, wall time      0.35 sec
nelec by numeric integration = 14.000000118468845
    CPU time for vxc     41.16 sec, wall time      0.33 sec
Even tempered Gaussians are generated as DF auxbasis for  Cl F
  ETB auxbasis for Cl  [[0, [24.721664, 1]], [0, [12.360832, 1]], [0, [6.180416, 1]], [0, [3.090208, 1]], [0, [1.545104, 1]], [0, [0.772552, 1]], [0, [0.386276, 1]], [0, [0.193138, 1]], [1, [20.012230625632515, 1]], [1, [10.006115312816258, 1]], [1, [5.003057656408129, 1]], [1, [2.5015288282040644, 1]], [1, [1.2507644141020322, 1]], [1, [0.6253822070510161, 1]], [1, [0.31269110352550805, 1]], [1, [0.15634555176275403, 1]], [2, [8.099968, 1]], [2, [4.049984, 1]], [2, [2.024992, 1]], [2, [1.012496, 1]], [2, [0.506248, 1]], [2, [0.253124, 1]], [2, [0.126562, 1]], [3, [4.236726694834115, 1]], [3, [2.1183633474170573, 1]], [3, [1.0591816737085287, 1]], [3, [0.5295908368542643, 1]], [3, [0.26479541842713217, 1]], [4, [4.43208, 1]], [4, [2.21604, 1]], [4, [1.10802, 1]], [4, [0.55401, 1]]]
  ETB auxbasis for F  [[0, [34.36032, 1]], [0, [17.18016, 1]], [0, [8.59008, 1]], [0, [4.29504, 1]], [0, [2.14752, 1]], [0, [1.07376, 1]], [0, [0.53688, 1]], [0, [0.26844, 1]], [1, [26.24731733290852, 1]], [1, [13.12365866645426, 1]], [1, [6.56182933322713, 1]], [1, [3.280914666613565, 1]], [1, [1.6404573333067825, 1]], [1, [0.8202286666533912, 1]], [1, [0.4101143333266956, 1]], [1, [0.2050571666633478, 1]], [2, [40.09984, 1]], [2, [20.04992, 1]], [2, [10.02496, 1]], [2, [5.01248, 1]], [2, [2.50624, 1]], [2, [1.25312, 1]], [2, [0.62656, 1]], [2, [0.31328, 1]], [2, [0.15664, 1]], [3, [13.72670431629093, 1]], [3, [6.863352158145465, 1]], [3, [3.4316760790727323, 1]], [3, [1.7158380395363662, 1]], [3, [0.8579190197681831, 1]], [3, [0.42895950988409154, 1]], [4, [9.397664, 1]], [4, [4.698832, 1]], [4, [2.349416, 1]], [4, [1.174708, 1]]]
num shells = 67, num cGTOs = 293
    CPU time for df-vj     39.35 sec, wall time      0.31 sec
E1 = -97.24070224119549  Ecoul = 49.48114099565044  Exc = -7.279425214592727
init E= -39.111662544241
cond(S) = 2002.1045264037482
    CPU time for initialize scf    196.03 sec, wall time      1.73 sec
  HOMO = -0.284189365302188  LUMO = -0.139011310976308
  mo_energy =
[-1.15587238 -0.75953718 -0.4942277  -0.45035605 -0.45035605 -0.28418937
 -0.28418937 -0.13901131  0.24711723  0.28438788  0.28438791  0.30359387
  0.30359387  0.30458345  0.36180452  0.36180452  0.3876948   0.52026566
  0.52026566  0.58816688  1.09523842  1.09537621  1.09537657  1.20340757
  1.20340757  1.25534669  1.25534669  1.29444524  1.29444611  1.31819974
  1.35731102  1.35731102  1.50149282  1.50149349  1.51464917  1.92236365
  1.92901658  1.92901658  2.31068973  2.31068973  2.42208438  2.53004634
  2.59099723  2.59099723  3.39501607  3.40089915  3.40089929  3.47393519
  3.47393519  3.50107582  3.50107582  3.52717053  3.5271807   3.74301555
  3.88243681  3.88243681  3.89408382  3.89408423  4.10958747  4.1199289
  4.1199289   4.12921528  4.12921528  4.3734264   4.42429072  4.42429577
  4.50588734  4.50588734  4.56449275  4.56449785  4.86939837  4.86942039
  4.90022639  4.90022639  5.10038014  5.61194795  5.61194795  5.91305201
  6.52249261  9.83217611  9.83217611 10.56556329 10.85583466 10.85583466
 11.31599345 11.31599345 11.32361822 11.32409717 11.35150522 11.35152104
 11.44818723 11.47862448 11.47862448 11.75809557 14.76450013 14.76450013
 14.8436948  14.84370825 15.03471338 15.03471338 15.28577896 15.28598657
 15.31647601 15.64118176 15.64118176 15.83771999 17.13146285 32.75005575]
nelec by numeric integration = 14.000000102283433
    CPU time for vxc     31.18 sec, wall time      0.25 sec
    CPU time for df-vj      1.54 sec, wall time      0.01 sec
E1 = -97.3159078652226  Ecoul = 49.73556513927825  Exc = -7.3570669694362785
cycle= 1 E= -39.0100857794838  delta_E= 0.102  |g|= 0.319  |ddm|= 2.33
    CPU time for cycle= 1     37.90 sec, wall time      0.30 sec
  HOMO = -0.279609167881523  LUMO = -0.164791093480706
  mo_energy =
[-1.11260959 -0.79248054 -0.48069419 -0.41208706 -0.41208706 -0.27960917
 -0.27960917 -0.16479109  0.24952114  0.25321674  0.25321679  0.26093291
  0.26093291  0.27668558  0.3500125   0.3500125   0.36175193  0.54143824
  0.54143824  0.57823664  1.08846818  1.08846858  1.08891709  1.16762588
  1.16762588  1.23171231  1.23171231  1.24797051  1.24797169  1.30836781
  1.3109317   1.3109317   1.49320594  1.51659951  1.51660016  1.92367987
  1.94092669  1.94092669  2.27889207  2.27889207  2.39046234  2.48804831
  2.63826287  2.63826287  3.33948379  3.35783824  3.35783847  3.42936789
  3.42936789  3.45357035  3.45357035  3.49537837  3.49538905  3.72733401
  3.82818929  3.82818948  3.83676873  3.83676873  4.05429873  4.05429873
  4.06408762  4.18862942  4.18862942  4.3222101   4.44570279  4.44570679
  4.44887304  4.44887304  4.50672925  4.50673367  4.91406182  4.91406182
  4.96337728  4.96340007  5.16451164  5.65283843  5.65283843  5.99244503
  6.48939744  9.95556425  9.95556425 10.62958029 10.77241742 10.77241742
 11.39083824 11.39719034 11.39719034 11.41787901 11.41789566 11.42244495
 11.42293273 11.53051217 11.53051217 11.80602715 14.89468522 14.89468522
 14.94870095 14.94872039 15.11807817 15.11807817 15.39091273 15.43174664
 15.4319504  15.77616051 15.77616051 15.96365049 17.04100735 32.91693915]
nelec by numeric integration = 14.000000110297805
    CPU time for vxc     40.75 sec, wall time      0.32 sec
    CPU time for df-vj      8.13 sec, wall time      0.06 sec
E1 = -96.133778269919  Ecoul = 48.41250523935737  Exc = -7.14045273934304
cycle= 2 E= -38.9344018540079  delta_E= 0.0757  |g|= 0.722  |ddm|= 0.919
    CPU time for cycle= 2     67.39 sec, wall time      0.53 sec
  HOMO = -0.290677664150845  LUMO = -0.174238844048174
  mo_energy =
[-1.17792232 -0.77958129 -0.51690998 -0.45185259 -0.45185259 -0.29067766
 -0.29067766 -0.17423884  0.24093513  0.2783947   0.27839471  0.28003444
  0.28003444  0.29272796  0.35766805  0.35766805  0.36710771  0.51982697
  0.51982697  0.57084631  1.0820013   1.08560005  1.08560042  1.17767223
  1.17767223  1.25387048  1.25387048  1.28146449  1.28146551  1.30219651
  1.33096277  1.33096277  1.49823209  1.50114406  1.50114477  1.90424868
  1.92498968  1.92498968  2.29842817  2.29842817  2.38904243  2.51115795
  2.58786016  2.58786016  3.34680502  3.37285944  3.37285964  3.43285398
  3.43285398  3.48342939  3.48342939  3.52661603  3.52662663  3.71598565
  3.86579508  3.86579531  3.87421137  3.87421137  4.0852392   4.0852392
  4.08859064  4.13752717  4.13752717  4.33373122  4.41184332  4.41184836
  4.48225225  4.48225225  4.54520461  4.54520977  4.871111    4.871111
  4.88496601  4.88498789  5.08793563  5.60086176  5.60086176  5.91263432
  6.46978537  9.83941864  9.83941864 10.55260558 10.82595468 10.82595468
 11.31597698 11.31597698 11.3376586  11.33767526 11.34141179 11.34189736
 11.41577597 11.45339446 11.45339446 11.72846063 14.78423439 14.78423439
 14.83880826 14.83882485 15.00916047 15.00916047 15.28305758 15.30441662
 15.3046213  15.64885773 15.64885773 15.83913223 17.09726961 32.75797652]
nelec by numeric integration = 14.000000100212024
    CPU time for vxc     38.21 sec, wall time      0.30 sec
    CPU time for df-vj      2.05 sec, wall time      0.01 sec
E1 = -97.37638128213152  Ecoul = 49.76791774384051  Exc = -7.343018283370488
cycle= 3 E= -39.0241579057647  delta_E= -0.0898  |g|= 0.138  |ddm|= 0.737
    CPU time for cycle= 3     53.62 sec, wall time      0.42 sec
  HOMO = -0.285224260833209  LUMO = -0.163808175938564
  mo_energy =
[-1.15037506 -0.77374355 -0.50288384 -0.43188385 -0.43188385 -0.28522426
 -0.28522426 -0.16380818  0.24853136  0.27931257  0.2793126   0.28417247
  0.28417247  0.29168186  0.36051613  0.36051613  0.37070886  0.52626533
  0.52626533  0.5781096   1.09122341  1.09343958  1.09343994  1.18406159
  1.18406159  1.25405195  1.25405195  1.28276036  1.28276129  1.30756364
  1.33606971  1.33606971  1.50228873  1.5081398   1.50814048  1.91415883
  1.9312155   1.9312155   2.30277426  2.30277426  2.39988942  2.51255044
  2.6038356   2.6038356   3.36012833  3.37970691  3.37970707  3.4465465
  3.4465465   3.48569572  3.48569572  3.52670939  3.52671989  3.72942422
  3.86925702  3.86925739  3.87576293  3.87576293  4.0878737   4.08870156
  4.08870156  4.15328632  4.15328632  4.34510763  4.4284267   4.42843152
  4.48551669  4.48551669  4.54750216  4.54750741  4.8917086   4.8917086
  4.90449911  4.90452123  5.11091213  5.6158396   5.6158396   5.93147556
  6.49068507  9.86909837  9.86909837 10.57813315 10.82864852 10.82864852
 11.33971769 11.33971769 11.36270684 11.36272367 11.36365356 11.36413979
 11.42195045 11.47977799 11.47977799 11.75667018 14.81254986 14.81254986
 14.86941051 14.86942584 15.04306196 15.04306196 15.31784775 15.33495835
 15.33516524 15.67763219 15.67763219 15.8673063  17.10128471 32.79654397]
nelec by numeric integration = 14.000000100982664
    CPU time for vxc     40.23 sec, wall time      0.32 sec
    CPU time for df-vj      7.11 sec, wall time      0.06 sec
E1 = -97.02581429493553  Ecoul = 49.36246644238801  Exc = -7.291413787677421
cycle= 4 E= -39.0274377243281  delta_E= -0.00328  |g|= 0.0375  |ddm|= 0.149
    CPU time for cycle= 4     90.32 sec, wall time      0.71 sec
  HOMO = -0.287714490155829  LUMO = -0.16590715907744
  mo_energy =
[-1.1557486  -0.77603165 -0.5050407  -0.43634447 -0.43634447 -0.28771449
 -0.28771449 -0.16590716  0.24640602  0.2773658   0.27736582  0.28263673
  0.28263673  0.29183863  0.35901942  0.35901942  0.370013    0.52464109
  0.52464109  0.57642389  1.08880245  1.09121102  1.09121139  1.18251028
  1.18251028  1.25230324  1.25230324  1.28039513  1.28039622  1.30644846
  1.33404278  1.33404278  1.50113133  1.50612742  1.5061281   1.91219482
  1.92981272  1.92981272  2.300204    2.300204    2.39768736  2.51118318
  2.60031635  2.60031635  3.35691051  3.37765769  3.37765787  3.44306482
  3.44306482  3.48377304  3.48377304  3.52422318  3.52423367  3.72616209
  3.86686881  3.86686897  3.87271544  3.87271544  4.08739304  4.08739304
  4.08817093  4.14976182  4.14976182  4.34173055  4.42492317  4.42492803
  4.48355694  4.48355694  4.54453477  4.54453968  4.88766476  4.88766476
  4.90042786  4.90044987  5.10660817  5.61296844  5.61296844  5.92810553
  6.48624716  9.86321436  9.86321436 10.57310174 10.82543327 10.82543327
 11.33527495 11.33527495 11.3583424  11.35835935 11.35900694 11.35949271
 11.41957936 11.47531324 11.47531324 11.75177276 14.80681089 14.80681089
 14.86378958 14.86380541 15.03708382 15.03708382 15.31178197 15.32889346
 15.32909975 15.67246055 15.67246055 15.8624127  17.09771304 32.78912124]
nelec by numeric integration = 14.000000101380369
    CPU time for vxc     28.02 sec, wall time      0.22 sec
    CPU time for df-vj      1.54 sec, wall time      0.01 sec
E1 = -97.10684540902717  Ecoul = 49.45391096414571  Exc = -7.302138553705361
cycle= 5 E= -39.02774908269  delta_E= -0.000311  |g|= 0.00417  |ddm|= 0.0434
    CPU time for cycle= 5     48.15 sec, wall time      0.38 sec
  HOMO = -0.287655762980048  LUMO = -0.165993101409435
  mo_energy =
[-1.15574019 -0.77588441 -0.50507294 -0.43628318 -0.43628318 -0.28765576
 -0.28765576 -0.1659931   0.24663121  0.27749459  0.2774946   0.28267315
  0.28267315  0.29171925  0.35908393  0.35908393  0.37001568  0.52473084
  0.52473084  0.57643046  1.08896434  1.09131884  1.09131921  1.18253743
  1.18253743  1.25240137  1.25240137  1.28059071  1.28059177  1.30643271
  1.33419399  1.33419399  1.50117642  1.50624122  1.50624191  1.91237736
  1.92990871  1.92990871  2.30039209  2.30039209  2.39773356  2.51119477
  2.60032803  2.60032803  3.35703258  3.37775915  3.37775934  3.44331719
  3.44331719  3.48388083  3.48388083  3.52440733  3.52441774  3.72635376
  3.86705889  3.86705895  3.87298246  3.87298246  4.08740606  4.08740606
  4.08795679  4.14991661  4.14991661  4.34196574  4.42500739  4.42501226
  4.48363091  4.48363091  4.5448053   4.54481035  4.88771313  4.88771313
  4.90048526  4.90050725  5.10664092  5.61320204  5.61320204  5.92823982
  6.48640682  9.86298417  9.86298417 10.57307673 10.8257516  10.8257516
 11.33534891 11.33534891 11.3584378  11.35845477 11.35903761 11.35952329
 11.41965819 11.47539368 11.47539368 11.75174155 14.80664542 14.80664542
 14.86361659 14.86363251 15.03681159 15.03681159 15.31149027 15.32866555
 15.3288717  15.6723893  15.6723893  15.86239743 17.09808282 32.78860962]
nelec by numeric integration = 14.000000101396624
    CPU time for vxc     42.75 sec, wall time      0.35 sec
    CPU time for df-vj      7.94 sec, wall time      0.06 sec
E1 = -97.10546807587247  Ecoul = 49.45284191524853  Exc = -7.3024509933953485
cycle= 6 E= -39.0277532381225  delta_E= -4.16e-06  |g|= 0.000638  |ddm|= 0.00465
    CPU time for cycle= 6    122.58 sec, wall time      0.99 sec
  HOMO = -0.287533544288783  LUMO = -0.165897270023412
  mo_energy =
[-1.15571113 -0.77575901 -0.50501941 -0.43623963 -0.43623963 -0.28753354
 -0.28753354 -0.16589727  0.24663635  0.27760948  0.27760948  0.28277264
  0.28277264  0.29180303  0.35915298  0.35915298  0.37007347  0.52473561
  0.52473561  0.5764829   1.08900183  1.09136213  1.0913625   1.18260756
  1.18260756  1.25250387  1.25250387  1.28073933  1.28074038  1.30649316
  1.33430309  1.33430309  1.50123696  1.50627339  1.50627407  1.91240034
  1.92993674  1.92993674  2.30052103  2.30052103  2.39781673  2.51134139
  2.60036815  2.60036815  3.35712505  3.37785038  3.37785058  3.44337782
  3.44337782  3.48401199  3.48401199  3.52455526  3.52456563  3.72640972
  3.86721814  3.86721816  3.87316034  3.87316034  4.08754966  4.08754966
  4.08810353  4.14990676  4.14990676  4.34206772  4.42503689  4.42504176
  4.48379586  4.48379586  4.54499624  4.54500136  4.8877633   4.8877633
  4.90049587  4.90051787  5.10665036  5.61319913  5.61319913  5.92823669
  6.48647606  9.86304859  9.86304859 10.57313094 10.82598152 10.82598152
 11.33534207 11.33534207 11.35842356 11.35844053 11.35904423 11.35952991
 11.4198443  11.47538282 11.47538282 11.75175591 14.80669741 14.80669741
 14.86365337 14.86366928 15.03685407 15.03685407 15.31153335 15.32873448
 15.32894065 15.6724118  15.6724118  15.86240145 17.09831699 32.78872685]
nelec by numeric integration = 14.000000101332763
    CPU time for vxc     32.87 sec, wall time      0.26 sec
    CPU time for df-vj      6.03 sec, wall time      0.05 sec
E1 = -97.10516744626943  Ecoul = 49.45239550159447  Exc = -7.302305675087024
cycle= 7 E= -39.0277537038652  delta_E= -4.66e-07  |g|= 0.000206  |ddm|= 0.00194
    CPU time for cycle= 7     62.71 sec, wall time      0.49 sec
  HOMO = -0.287573367629875  LUMO = -0.165937877064311
  mo_energy =
[-1.15575125 -0.77580564 -0.50506269 -0.43627633 -0.43627633 -0.28757337
 -0.28757337 -0.16593788  0.24661861  0.27758051  0.27758052  0.28274099
  0.28274099  0.2917806   0.35913153  0.35913153  0.37004806  0.52472009
  0.52472009  0.5764574   1.08897387  1.09134015  1.09134052  1.18258027
  1.18258027  1.25248045  1.25248045  1.28069857  1.28069962  1.30646458
  1.33426313  1.33426313  1.50121159  1.50625173  1.50625242  1.91237008
  1.92991382  1.92991382  2.30047907  2.30047907  2.39777426  2.51129695
  2.60033515  2.60033515  3.3570832   3.3778159   3.37781609  3.44334201
  3.44334201  3.48397579  3.48397579  3.52451928  3.52452973  3.72637339
  3.86716893  3.86716895  3.87311144  3.87311144  4.08750188  4.08750188
  4.08805866  4.1498837   4.1498837   4.34202046  4.42500725  4.42501212
  4.48374529  4.48374529  4.54493984  4.54494497  4.88772187  4.88772187
  4.90046067  4.90048266  5.10660994  5.61316472  5.61316472  5.92819772
  6.48642873  9.86299655  9.86299655 10.57307715 10.82591073 10.82591073
 11.33530807 11.33530807 11.35838857 11.35840554 11.3590112  11.35949688
 11.41977694 11.47534656 11.47534656 11.7517155  14.80664931 14.80664931
 14.86360532 14.86362122 15.03680493 15.03680493 15.31148201 15.32867826
 15.32888443 15.67235603 15.67235603 15.86234627 17.09824118 32.7886545 ]
nelec by numeric integration = 14.000000101347752
    CPU time for vxc     32.08 sec, wall time      0.25 sec
    CPU time for df-vj      8.06 sec, wall time      0.06 sec
E1 = -97.10564057295791  Ecoul = 49.45296684708367  Exc = -7.302403901698944
cycle= 8 E= -39.0277537116764  delta_E= -7.81e-09  |g|= 4.78e-06  |ddm|= 0.000593
    CPU time for cycle= 8     65.29 sec, wall time      0.51 sec
  HOMO = -0.287572781268586  LUMO = -0.165937216789226
  mo_energy =
[-1.15575084 -0.77580483 -0.50506218 -0.43627585 -0.43627585 -0.28757278
 -0.28757278 -0.16593722  0.24661889  0.27758097  0.27758098  0.28274158
  0.28274158  0.29178089  0.35913186  0.35913186  0.37004838  0.52472013
  0.52472013  0.57645775  1.08897426  1.09134043  1.0913408   1.18258067
  1.18258067  1.25248077  1.25248077  1.28069931  1.28070036  1.30646496
  1.33426391  1.33426391  1.50121194  1.50625194  1.50625263  1.91237043
  1.92991399  1.92991399  2.30047983  2.30047983  2.397775    2.51129772
  2.6003356   2.6003356   3.35708392  3.37781645  3.37781665  3.44334259
  3.44334259  3.48397641  3.48397641  3.52451976  3.52453027  3.72637391
  3.8671699   3.86716991  3.87311225  3.87311225  4.08750275  4.08750275
  4.08805932  4.14988381  4.14988381  4.34202127  4.42500747  4.42501234
  4.4837462   4.4837462   4.54494098  4.54494612  4.88772236  4.88772236
  4.90046097  4.90048296  5.10661041  5.6131651   5.6131651   5.92819815
  6.48642946  9.86299744  9.86299744 10.57307796 10.82591232 10.82591232
 11.33530821 11.33530821 11.35838869 11.35840566 11.3590114  11.35949708
 11.41977823 11.47534668 11.47534668 11.75171575 14.80664984 14.80664984
 14.86360581 14.86362172 15.0368054  15.0368054  15.31148251 15.32867914
 15.32888531 15.6723569  15.6723569  15.86234709 17.09824294 32.78865602]
nelec by numeric integration = 14.000000101347634
    CPU time for vxc     34.02 sec, wall time      0.27 sec
    CPU time for df-vj      8.06 sec, wall time      0.06 sec
E1 = -97.10563198716144  Ecoul = 49.452956729171134  Exc = -7.302402369588174
cycle= 9 E= -39.0277537116817  delta_E= -5.3e-12  |g|= 5.69e-07  |ddm|= 1.16e-05
    CPU time for cycle= 9     69.19 sec, wall time      0.54 sec
  HOMO = -0.287572694686962  LUMO = -0.165937172093529
  mo_energy =
[-1.15575091 -0.77580471 -0.50506217 -0.43627589 -0.43627589 -0.28757269
 -0.28757269 -0.16593717  0.24661892  0.27758109  0.2775811   0.28274166
  0.28274166  0.29178095  0.35913193  0.35913193  0.37004844  0.52472014
  0.52472014  0.5764578   1.08897431  1.09134048  1.09134085  1.18258072
  1.18258072  1.25248087  1.25248087  1.28069947  1.28070052  1.30646501
  1.33426403  1.33426403  1.501212    1.50625198  1.50625267  1.91237048
  1.92991403  1.92991403  2.30047997  2.30047997  2.39777506  2.51129786
  2.60033556  2.60033556  3.35708399  3.37781654  3.37781673  3.44334266
  3.44334266  3.48397653  3.48397653  3.52451991  3.52453042  3.72637397
  3.86717007  3.86717008  3.87311245  3.87311245  4.08750289  4.08750289
  4.08805944  4.14988379  4.14988379  4.3420214   4.42500748  4.42501235
  4.48374636  4.48374636  4.5449412   4.54494633  4.88772236  4.88772236
  4.90046089  4.90048288  5.10661034  5.6131651   5.6131651   5.92819809
  6.48642951  9.86299724  9.86299724 10.57307788 10.82591258 10.82591258
 11.33530815 11.33530815 11.35838863 11.35840561 11.35901131 11.35949699
 11.41977841 11.47534664 11.47534664 11.75171569 14.80664967 14.80664967
 14.86360566 14.86362157 15.03680526 15.03680526 15.31148238 15.32867892
 15.32888509 15.67235671 15.67235671 15.86234693 17.09824322 32.7886557 ]
nelec by numeric integration = 14.000000101347554
    CPU time for vxc     34.64 sec, wall time      0.27 sec
    CPU time for df-vj      8.94 sec, wall time      0.07 sec
E1 = -97.10563353365986  Ecoul = 49.45295855003765  Exc = -7.302402643956019
Extra cycle  E= -39.0277537116814  delta_E= 2.56e-13  |g|= 1.09e-06  |ddm|= 2.43e-06
    CPU time for scf_cycle    884.92 sec, wall time      7.16 sec
    CPU time for SCF    884.93 sec, wall time      7.16 sec
converged SCF energy = -39.0277537116814
