#INFO: **** input file is /home/nkousuke/lustre/toBeSync/turboRVB/05turbo-genius-development/turbogenius_paper/04data/sanity_checks/03pyscf_HF_turbo_VMC_via_trexio/00open_boundary/results/S2/pyscf-HF-workflow/run.py ****

from pyscf_wrapper import Pyscf_wrapper

# input variables
pyscf_chkfile="pyscf.chk"
structure_file="S2.xyz"

# input variables
omp_num_threads=128
charge=0
spin=2
basis="ccecp-ccpvqz"
ecp="ccecp"
scf_method="HF"
dft_xc="NA"
solver_newton=False
MP2_flag=False
CCSD_flag=False
pyscf_output="out.pyscf"
twist_average=False
exp_to_discard=0.0
kpt=[0.0, 0.0, 0.0]
kpt_grid=[1, 1, 1]
smearing_method="fermi"
smearing_sigma=0.0

pyscf_calc=Pyscf_wrapper(
                        structure_file=structure_file,
                        chkfile=pyscf_chkfile,
                        )

pyscf_calc.run_pyscf(
                  omp_num_threads=omp_num_threads,
                  charge=charge,
                  spin=spin,
                  basis=basis,
                  ecp=ecp,
                  scf_method=scf_method,
                  dft_xc=dft_xc,
                  solver_newton=solver_newton,
                  MP2_flag=MP2_flag,
                  CCSD_flag=CCSD_flag,
                  pyscf_output=pyscf_output,
                  twist_average=twist_average,
                  exp_to_discard=exp_to_discard,
                  kpt=kpt,
                  kpt_grid=kpt_grid,
                  smearing_method=smearing_method,
                  smearing_sigma=smearing_sigma
                  )
                #INFO: ******************** input file end ********************


System: uname_result(system='Linux', node='spcc-200', release='5.4.0-66-generic', version='#74-Ubuntu SMP Wed Jan 27 22:54:38 UTC 2021', machine='x86_64', processor='x86_64')  Threads 128
Python 3.7.3 (default, Mar 27 2019, 22:11:17) 
[GCC 7.3.0]
numpy 1.20.1  scipy 1.7.3
Date: Mon Dec 19 18:04:11 2022
PySCF version 2.0.1
PySCF path  /home/nkousuke/application/anaconda3/lib/python3.7/site-packages/pyscf

[CONFIG] conf_file /home/nkousuke/.pyscf_conf.py
[INPUT] verbose = 5
[INPUT] max_memory = 507500.81640625 
[INPUT] num. atoms = 2
[INPUT] num. electrons = 12
[INPUT] charge = 0
[INPUT] spin (= nelec alpha-beta = 2S) = 2
[INPUT] symmetry False subgroup None
[INPUT] Mole.unit = A
[INPUT]  1 S      0.000000000000   0.000000000000   0.944700000000 AA    0.000000000000   0.000000000000   1.785224269877 Bohr
[INPUT]  2 S      0.000000000000   0.000000000000  -0.944700000000 AA    0.000000000000   0.000000000000  -1.785224269877 Bohr
[INPUT] ---------------- BASIS SET ---------------- 
[INPUT] l, kappa, [nprim/nctr], expnt,             c_1 c_2 ...
[INPUT] S
[INPUT] 0    0    [10   /1   ]  14.05257          0.002102
                                7.864913          -0.011042
                                4.401818          0.086618
                                2.4636            -0.271004
                                1.378823          -0.151274
                                0.771696          0.136044
                                0.431901          0.39436
                                0.241726          0.432098
                                0.135289          0.230974
                                0.075718          0.051205
[INPUT] 0    0    [1    /1   ]  0.818729             1
[INPUT] 0    0    [1    /1   ]  0.332501             1
[INPUT] 0    0    [1    /1   ]  0.135035             1
[INPUT] 1    0    [10   /1   ]  6.808844          -0.003573
                                3.94156           0.001903
                                2.281723          -0.065016
                                1.320863          0.042305
                                0.764632          0.158772
                                0.442637          0.278172
                                0.256237          0.293821
                                0.148333          0.248015
                                0.085868          0.114905
                                0.049708          0.032934
[INPUT] 1    0    [1    /1   ]  2.088209             1
[INPUT] 1    0    [1    /1   ]  0.838124             1
[INPUT] 1    0    [1    /1   ]  0.33639              1
[INPUT] 2    0    [1    /1   ]  1.68189              1
[INPUT] 2    0    [1    /1   ]  0.613672             1
[INPUT] 2    0    [1    /1   ]  0.223911             1
[INPUT] 3    0    [1    /1   ]  0.898397             1
[INPUT] 3    0    [1    /1   ]  0.339271             1
[INPUT] 4    0    [1    /1   ]  0.691446             1

nuclear repulsion = 10.0827668006351
number of shells = 28
number of NR pGTOs = 180
number of NR cGTOs = 108
basis = ccecp-ccpvqz
ecp = ccecp
CPU time:         5.93


******** <class 'pyscf.scf.rohf.ROHF'> ********
method = ROHF-RHF
initial guess = minao
damping factor = 0
level_shift factor = 0
DIIS = <class 'pyscf.scf.diis.CDIIS'>
diis_start_cycle = 1
diis_space = 8
SCF conv_tol = 1e-09
SCF conv_tol_grad = None
SCF max_cycles = 200
direct_scf = True
direct_scf_tol = 1e-13
chkfile to save SCF result = pyscf.chk
max_memory 507500 MB (current use 106 MB)
num. doubly occ = 5  num. singly occ = 2
Set gradient conv threshold to 3.16228e-05
E1 = -52.48023606146879  Ecoul = 22.616768912518864
init E= -19.7807003483148
cond(S) = 4959.463702361267
    CPU time for initialize scf     92.23 sec, wall time      0.98 sec
  HOMO = -0.185017716011952  LUMO = 0.0667862360893018
                  Roothaan           | alpha              | beta
  Highest 2-occ = -0.432955447800513 | -0.432955447800513 | -0.432955447800513
  Lowest 0-occ =  0.0667862360893018 | 0.0667862360892926 | 0.0667862360892926
  1-occ =         -0.185017716011953 | -0.185017716011952 | -0.185017716011952
  1-occ =         -0.185017716011952 | -0.185017716011953 | -0.185017716011953
  Roothaan mo_energy =
[-1.24480628 -0.77811067 -0.44811424 -0.43295545 -0.43295545 -0.18501772
 -0.18501772  0.06678624  0.29164921  0.29973466  0.35006997  0.35006997
  0.3747503   0.3747503   0.41186146  0.4608267   0.4608267   0.49054493
  0.49054493  0.5330909   0.5330909   0.6217984   0.75550689  0.75801226
  0.75801226  0.93280966  1.15354151  1.15354151  1.15906113  1.15906113
  1.19384142  1.20225358  1.20225358  1.32610436  1.32610436  1.40430283
  1.40430283  1.4302147   1.43420697  1.43420697  1.54251472  1.54251472
  1.63139925  1.63139925  1.65066987  1.65066987  1.691989    1.691989
  1.69586112  1.743387    2.1029481   2.1029481   2.30131976  2.47970955
  2.4805024   2.4805024   2.55023815  3.00346299  3.00346299  3.04511978
  3.04511978  3.08161441  3.08161441  3.14338634  3.22818367  3.23391481
  3.23391481  3.30403939  3.30403939  3.46108508  3.46108508  3.49122398
  3.49122398  3.56300336  3.56300336  3.59890869  3.59890869  3.60649311
  3.60649311  3.74203197  3.74203197  3.76715188  3.87663866  3.91950009
  3.91950009  3.95991353  3.95991353  4.04546671  4.04546671  4.16825039
  4.16825039  4.18453259  4.25960484  4.25960484  4.28911475  4.31015092
  4.31015092  5.06630086  5.06630086  6.19320314  8.79659989  8.79659989
  9.04086049  9.04086049  9.29743597  9.45131895 14.61509306 15.05262763]
E1 = -52.273616498250036  Ecoul = 22.282630017758684
cycle= 1 E= -19.9082196798562  delta_E= -0.128  |g|= 0.164  |ddm|= 2.81
    CPU time for cycle= 1    128.49 sec, wall time      1.16 sec
  HOMO = -0.202490514832251  LUMO = 0.115066125547872
                  Roothaan           | alpha              | beta
  Highest 2-occ = -0.498418124818395 | -0.556774404003625 | -0.440061845633165
  Lowest 0-occ =   0.115066125547872 |  0.100707943494352 |  0.129424307601411
  1-occ =         -0.202490514832253 | -0.383488287780912 | -0.0158740359419381
  1-occ =         -0.202490514832251 |  -0.38348828778091 | -0.0158740359419368
  Roothaan mo_energy =
[-1.12486886 -0.82066937 -0.53481757 -0.49841812 -0.49841812 -0.20249051
 -0.20249051  0.11506613  0.27954499  0.30868166  0.33267678  0.33267678
  0.35848002  0.35848002  0.40461569  0.45318592  0.45318592  0.4885701
  0.4885701   0.52219395  0.52219395  0.6197544   0.74973838  0.75244605
  0.75244605  0.93003482  1.14160645  1.14160645  1.14911532  1.14911532
  1.17444483  1.18405608  1.18405608  1.31860111  1.31860111  1.38543032
  1.38543032  1.41769992  1.41769992  1.42174932  1.52535369  1.52535369
  1.62317811  1.62317811  1.63734638  1.63734638  1.67768373  1.68490213
  1.68490213  1.73581214  2.08450634  2.08450634  2.28161498  2.46253971
  2.46402751  2.46402751  2.53728936  2.98235907  2.98235907  3.01973782
  3.01973782  3.06618336  3.06618336  3.12336996  3.20267973  3.21941777
  3.21941777  3.28987648  3.28987648  3.43841447  3.43841447  3.46964274
  3.46964274  3.54460168  3.54460168  3.58232285  3.58232285  3.58580973
  3.58580973  3.72025913  3.72025913  3.7508836   3.85184762  3.89648938
  3.89648938  3.94279018  3.94279018  4.03244987  4.03244987  4.14108019
  4.14108019  4.17111141  4.23290897  4.23290897  4.25688351  4.28961286
  4.28961286  5.03926501  5.03926501  6.16359201  8.7616852   8.7616852
  9.00681801  9.00681801  9.26425     9.41708272 14.57660542 15.01418619]
E1 = -52.69845461689181  Ecoul = 22.697194468464993
cycle= 2 E= -19.9184933477917  delta_E= -0.0103  |g|= 0.0644  |ddm|= 1.08
    CPU time for cycle= 2    106.63 sec, wall time      0.88 sec
  HOMO = -0.178560962635166  LUMO = 0.131336280738275
                  Roothaan           | alpha              | beta
  Highest 2-occ = -0.469584764811999 | -0.522151542046006 | -0.401437164555726
  Lowest 0-occ =   0.131336280738275 |  0.121672964348454 |   0.14912942258164
  1-occ =         -0.178560962635167 | -0.358995939101089 | 0.0135784232778849
  1-occ =         -0.178560962635166 | -0.358995939101091 | 0.0135784232778819
  Roothaan mo_energy =
[-1.08212695 -0.79955231 -0.51210212 -0.46958476 -0.46958476 -0.17856096
 -0.17856096  0.13133628  0.30027008  0.31936561  0.3515113   0.3515113
  0.38055272  0.38055272  0.40862059  0.46782537  0.46782537  0.49662993
  0.49662993  0.53915127  0.53915127  0.63593679  0.76629879  0.76745472
  0.76745472  0.94481227  1.16179631  1.16179631  1.16828607  1.16828607
  1.201482    1.2086671   1.2086671   1.33440598  1.33440598  1.41398943
  1.41398943  1.43632894  1.44410815  1.44410815  1.55521446  1.55521446
  1.63862787  1.63862787  1.6612807   1.6612807   1.69812248  1.69812248
  1.71567991  1.74759013  2.1130354   2.1130354   2.31650745  2.48804365
  2.48804365  2.48987873  2.55143978  3.01980496  3.01980496  3.06559165
  3.06559165  3.09435277  3.09435277  3.15494871  3.24562119  3.24562119
  3.24869069  3.3156552   3.3156552   3.47479463  3.47479463  3.50278185
  3.50278185  3.57353919  3.57353919  3.60896194  3.60896194  3.62158073
  3.62158073  3.75408716  3.75408716  3.77168348  3.89470423  3.92924806
  3.92924806  3.96949268  3.96949268  4.05507715  4.05507715  4.17841458
  4.17841458  4.19189059  4.27054736  4.27054736  4.30791429  4.32006063
  4.32006063  5.08322202  5.08322202  6.21657351  8.80555163  8.80555163
  9.04920921  9.04920921  9.30574251  9.46044672 14.62483918 15.06199407]
E1 = -52.57879003719762  Ecoul = 22.576031606494503
cycle= 3 E= -19.919991630068  delta_E= -0.0015  |g|= 0.0136  |ddm|= 0.145
    CPU time for cycle= 3     58.62 sec, wall time      0.46 sec
  HOMO = -0.178825327697291  LUMO = 0.133156102672608
                  Roothaan           | alpha              | beta
  Highest 2-occ = -0.470694916993012 | -0.532164005422328 | -0.412466018492235
  Lowest 0-occ =   0.133156102672608 |  0.118322045631584 |   0.14520760341906
  1-occ =         -0.178825327697291 | -0.366039224292404 | 0.00547103248694249
  1-occ =         -0.178825327697291 | -0.366039224292404 | 0.00547103248693897
  Roothaan mo_energy =
[-1.08441999 -0.79869197 -0.51498674 -0.47069492 -0.47069492 -0.17882533
 -0.17882533  0.1331561   0.29855119  0.3205402   0.35100467  0.35100467
  0.37937995  0.37937995  0.40943459  0.4672689   0.4672689   0.49650611
  0.49650611  0.53890382  0.53890382  0.63596696  0.76658302  0.76797001
  0.76797001  0.94499141  1.16118214  1.16118214  1.16729555  1.16729555
  1.20001528  1.20773388  1.20773388  1.33402073  1.33402073  1.41288329
  1.41288329  1.43690544  1.44326476  1.44326476  1.55453868  1.55453868
  1.63862989  1.63862989  1.66106598  1.66106598  1.69845481  1.69845481
  1.71399181  1.74882981  2.11217267  2.11217267  2.31555148  2.48756986
  2.48756986  2.48959459  2.55303381  3.01831127  3.01831127  3.06368332
  3.06368332  3.093712    3.093712    3.1539337   3.24457705  3.24457705
  3.2470562   3.31468089  3.31468089  3.47245621  3.47245621  3.50126676
  3.50126676  3.57340125  3.57340125  3.60932753  3.60932753  3.61993087
  3.61993087  3.75377292  3.75377292  3.77277512  3.89284712  3.92893921
  3.92893921  3.96964602  3.96964602  4.05545015  4.05545015  4.17672359
  4.17672359  4.19307896  4.26895719  4.26895719  4.30623193  4.3197576
  4.3197576   5.08164978  5.08164978  6.2151197   8.80356645  8.80356645
  9.04742946  9.04742946  9.30496758  9.45934539 14.62263652 15.05973747]
E1 = -52.58726905576481  Ecoul = 22.584398524576606
cycle= 4 E= -19.9201037305531  delta_E= -0.000112  |g|= 0.00165  |ddm|= 0.0359
    CPU time for cycle= 4    117.35 sec, wall time      0.93 sec
  HOMO = -0.179916113186976  LUMO = 0.132561634403944
                  Roothaan           | alpha              | beta
  Highest 2-occ = -0.471417180461787 | -0.531223287407222 | -0.411476536233566
  Lowest 0-occ =   0.132561634403944 |  0.119135818913066 |  0.146057899992896
  1-occ =         -0.179916113186976 | -0.365590793894087 | 0.00598697745106115
  1-occ =         -0.179916113186976 | -0.365590793894085 | 0.00598697745106092
  Roothaan mo_energy =
[-1.08537066 -0.7997652  -0.5161609  -0.47141718 -0.47141718 -0.17991611
 -0.17991611  0.13256163  0.29779063  0.31986723  0.35041578  0.35041578
  0.37873735  0.37873735  0.4088481   0.46671104  0.46671104  0.49631496
  0.49631496  0.53818248  0.53818248  0.63542449  0.76573455  0.7671823
  0.7671823   0.94406706  1.16052242  1.16052242  1.16676088  1.16676088
  1.19910495  1.20686793  1.20686793  1.33345893  1.33345893  1.4118189
  1.4118189   1.43596817  1.44227751  1.44227751  1.55338299  1.55338299
  1.63788074  1.63788074  1.66002054  1.66002054  1.69774976  1.69774976
  1.71284986  1.74779272  2.11105855  2.11105855  2.31439052  2.48642589
  2.48642589  2.48832732  2.55163226  3.01727785  3.01727785  3.06255908
  3.06255908  3.09266951  3.09266951  3.15261632  3.24363206  3.24363206
  3.24579185  3.31372907  3.31372907  3.47139961  3.47139961  3.50000498
  3.50000498  3.57199127  3.57199127  3.60804666  3.60804666  3.61865084
  3.61865084  3.75235128  3.75235128  3.77124126  3.8916827   3.92742369
  3.92742369  3.96827129  3.96827129  4.05420865  4.05420865  4.17519975
  4.17519975  4.19159764  4.26742366  4.26742366  4.30470775  4.31825575
  4.31825575  5.08019603  5.08019603  6.213626    8.80173853  8.80173853
  9.04558807  9.04558807  9.30302142  9.45742542 14.62070302 15.05780245]
E1 = -52.588436026807955  Ecoul = 22.585563875226335
cycle= 5 E= -19.9201053509465  delta_E= -1.62e-06  |g|= 0.000366  |ddm|= 0.00411
    CPU time for cycle= 5     85.38 sec, wall time      0.68 sec
  HOMO = -0.179765319598556  LUMO = 0.13268769174176
                  Roothaan           | alpha              | beta
  Highest 2-occ =  -0.47124508038007 | -0.531108331362012 |  -0.41134964347242
  Lowest 0-occ =    0.13268769174176 |   0.11924519676636 |  0.146148233378527
  1-occ =         -0.179765319598559 | -0.365525251180815 | 0.00604691180869523
  1-occ =         -0.179765319598556 | -0.365525251180812 | 0.00604691180869561
  Roothaan mo_energy =
[-1.08518877 -0.79957997 -0.51598801 -0.47124508 -0.47124508 -0.17976532
 -0.17976532  0.13268769  0.2978596   0.31998615  0.35054711  0.35054711
  0.3788398   0.3788398   0.40892456  0.46680458  0.46680458  0.49636985
  0.49636985  0.53829726  0.53829726  0.63550778  0.76586502  0.7673066
  0.7673066   0.94419119  1.16062132  1.16062132  1.16683837  1.16683837
  1.19923374  1.20701288  1.20701288  1.33354956  1.33354956  1.41203107
  1.41203107  1.43611442  1.44247345  1.44247345  1.55360474  1.55360474
  1.63799388  1.63799388  1.66018661  1.66018661  1.69787543  1.69787543
  1.71305854  1.7479654   2.11128215  2.11128215  2.31461676  2.48661649
  2.48661649  2.4885233   2.55187746  3.01744999  3.01744999  3.06277529
  3.06277529  3.09283902  3.09283902  3.15284638  3.24380363  3.24380363
  3.24604757  3.31390312  3.31390312  3.47158014  3.47158014  3.50026025
  3.50026025  3.57224943  3.57224943  3.60829695  3.60829695  3.61889936
  3.61889936  3.75262279  3.75262279  3.77148836  3.89192556  3.92770365
  3.92770365  3.96854484  3.96854484  4.05441688  4.05441688  4.17553653
  4.17553653  4.19186376  4.26774617  4.26774617  4.3050537   4.31854958
  4.31854958  5.08046978  5.08046978  6.21395685  8.80216215  8.80216215
  9.04600993  9.04600993  9.3034517   9.45784671 14.62116486 15.05826378]
E1 = -52.58797280579683  Ecoul = 22.58510055298943
cycle= 6 E= -19.9201054521723  delta_E= -1.01e-07  |g|= 7.96e-05  |ddm|= 0.00152
    CPU time for cycle= 6     92.43 sec, wall time      0.73 sec
  HOMO = -0.179780307609191  LUMO = 0.132680169852949
                  Roothaan           | alpha              | beta
  Highest 2-occ = -0.471249988320511 | -0.531135064040953 | -0.411378092244832
  Lowest 0-occ =   0.132680169852949 |  0.119228060477613 |  0.146129273864788
  1-occ =         -0.179780307609192 | -0.365563343006687 | 0.0060022458215188
  1-occ =         -0.179780307609191 | -0.365563343006684 | 0.00600224582151956
  Roothaan mo_energy =
[-1.08520904 -0.79959414 -0.51599616 -0.47124999 -0.47124999 -0.17978031
 -0.17978031  0.13268017  0.29785155  0.3199837   0.35054742  0.35054742
  0.37883319  0.37883319  0.40892287  0.46679738  0.46679738  0.49636582
  0.49636582  0.53829208  0.53829208  0.63550267  0.7658565   0.76730157
  0.76730157  0.9441829   1.16061656  1.16061656  1.16683467  1.16683467
  1.19922379  1.20700464  1.20700464  1.3335481   1.3335481   1.41202119
  1.41202119  1.43610678  1.44246595  1.44246595  1.55359322  1.55359322
  1.63798881  1.63798881  1.66017541  1.66017541  1.69787289  1.69787289
  1.71304346  1.74795786  2.11127252  2.11127252  2.31460293  2.48660529
  2.48660529  2.48850865  2.55186744  3.01743788  3.01743788  3.06276058
  3.06276058  3.09283065  3.09283065  3.15282913  3.24379981  3.24379981
  3.24603195  3.31389957  3.31389957  3.47156908  3.47156908  3.50025076
  3.50025076  3.57223643  3.57223643  3.60829055  3.60829055  3.61888553
  3.61888553  3.75260791  3.75260791  3.77147332  3.89191245  3.9276866
  3.9276866   3.96853271  3.96853271  4.05440727  4.05440727  4.17552105
  4.17552105  4.19184988  4.26772927  4.26772927  4.30503203  4.31853303
  4.31853303  5.08044908  5.08044908  6.21393438  8.80213914  8.80213914
  9.04598695  9.04598695  9.30342459  9.45781922 14.62113775 15.0582368 ]
E1 = -52.58800448235267  Ecoul = 22.585132224709007
cycle= 7 E= -19.9201054570085  delta_E= -4.84e-09  |g|= 6.92e-06  |ddm|= 0.000316
    CPU time for cycle= 7    100.24 sec, wall time      0.79 sec
  HOMO = -0.179781504762462  LUMO = 0.132678969856663
                  Roothaan           | alpha              | beta
  Highest 2-occ = -0.471251380718575 | -0.531130350923107 | -0.411372758925425
  Lowest 0-occ =   0.132678969856663 |  0.119228536559717 |  0.146129731265823
  1-occ =         -0.179781504762466 |  -0.36556491665494 | 0.00600202085167522
  1-occ =         -0.179781504762462 | -0.365564916654937 | 0.00600202085167881
  Roothaan mo_energy =
[-1.0852107  -0.79959521 -0.51599541 -0.47125138 -0.47125138 -0.1797815
 -0.1797815   0.13267897  0.29784984  0.31998354  0.35054613  0.35054613
  0.37883215  0.37883215  0.40892255  0.46679609  0.46679609  0.49636504
  0.49636504  0.53829127  0.53829127  0.63550185  0.7658552   0.76730057
  0.76730057  0.94418194  1.16061535  1.16061535  1.1668337   1.1668337
  1.19922213  1.20700313  1.20700313  1.33354728  1.33354728  1.41201971
  1.41201971  1.43610557  1.44246465  1.44246465  1.55359157  1.55359157
  1.63798774  1.63798774  1.66017387  1.66017387  1.69787188  1.69787188
  1.71304141  1.74795687  2.11127095  2.11127095  2.31460121  2.48660369
  2.48660369  2.48850679  2.55186624  3.01743592  3.01743592  3.06275828
  3.06275828  3.09282911  3.09282911  3.15282724  3.24379855  3.24379855
  3.24602957  3.31389833  3.31389833  3.47156739  3.47156739  3.50024926
  3.50024926  3.57223465  3.57223465  3.60828926  3.60828926  3.61888358
  3.61888358  3.75260577  3.75260577  3.77147128  3.89191027  3.92768445
  3.92768445  3.96853095  3.96853095  4.05440567  4.05440567  4.17551945
  4.17551945  4.19184798  4.26772758  4.26772758  4.30502926  4.31853112
  4.31853112  5.08044667  5.08044667  6.21393148  8.80213722  8.80213722
  9.04598505  9.04598505  9.30342212  9.4578167  14.62113562 15.05823471]
E1 = -52.588009524686186  Ecoul = 22.585137267017558
cycle= 8 E= -19.9201054570335  delta_E= -2.5e-11  |g|= 7.12e-07  |ddm|= 2.61e-05
    CPU time for cycle= 8     97.55 sec, wall time      0.82 sec
  HOMO = -0.179781251145932  LUMO = 0.132679167980829
                  Roothaan           | alpha              | beta
  Highest 2-occ = -0.471251138781367 | -0.531129942294039 | -0.411372335268694
  Lowest 0-occ =   0.132679167980829 |  0.119228599080064 |  0.146129736881578
  1-occ =         -0.179781251145932 | -0.365564759611581 | 0.00600224327870296
  1-occ =         -0.179781251145932 | -0.365564759611579 | 0.00600224327870303
  Roothaan mo_energy =
[-1.08521035 -0.79959491 -0.5159952  -0.47125114 -0.47125114 -0.17978125
 -0.17978125  0.13267917  0.29785021  0.31998376  0.35054633  0.35054633
  0.37883241  0.37883241  0.4089227   0.46679627  0.46679627  0.4963652
  0.4963652   0.53829151  0.53829151  0.63550205  0.76585546  0.7673008
  0.7673008   0.94418218  1.16061559  1.16061559  1.16683393  1.16683393
  1.19922248  1.20700344  1.20700344  1.33354749  1.33354749  1.41202009
  1.41202009  1.43610581  1.44246501  1.44246501  1.55359196  1.55359196
  1.63798797  1.63798797  1.66017418  1.66017418  1.69787209  1.69787209
  1.71304184  1.74795712  2.11127133  2.11127133  2.31460163  2.48660404
  2.48660404  2.48850715  2.55186656  3.01743633  3.01743633  3.06275875
  3.06275875  3.09282948  3.09282948  3.15282765  3.24379891  3.24379891
  3.24603007  3.31389869  3.31389869  3.47156782  3.47156782  3.50024972
  3.50024972  3.57223508  3.57223508  3.60828966  3.60828966  3.61888406
  3.61888406  3.7526062   3.7526062   3.77147163  3.89191075  3.92768489
  3.92768489  3.96853136  3.96853136  4.05440603  4.05440603  4.17551998
  4.17551998  4.19184834  4.26772811  4.26772811  4.30502981  4.31853157
  4.31853157  5.08044718  5.08044718  6.21393202  8.80213784  8.80213784
  9.04598566  9.04598566  9.30342268  9.45781727 14.62113627 15.05823536]
E1 = -52.58800860949618  Ecoul = 22.585136351827337
Extra cycle  E= -19.9201054570337  delta_E= -2.13e-13  |g|= 2.05e-07  |ddm|= 2.22e-06
    CPU time for scf_cycle    973.95 sec, wall time      8.18 sec
    CPU time for SCF    973.96 sec, wall time      8.18 sec
converged SCF energy = -19.9201054570337
