#INFO: **** input file is /home/nkousuke/lustre/toBeSync/turboRVB/05turbo-genius-development/turbogenius_paper/04data/sanity_checks/03pyscf_HF_turbo_VMC_via_trexio/00open_boundary/results/He+/pyscf-HF-workflow/run.py ****

from pyscf_wrapper import Pyscf_wrapper

# input variables
pyscf_chkfile="pyscf.chk"
structure_file="He.xyz"

# input variables
omp_num_threads=128
charge=1
spin=1
basis="ccecp-ccpvqz"
ecp="ccecp"
scf_method="HF"
dft_xc="NA"
solver_newton=False
MP2_flag=False
CCSD_flag=False
pyscf_output="out.pyscf"
twist_average=False
exp_to_discard=0.0
kpt=[0.0, 0.0, 0.0]
kpt_grid=[1, 1, 1]
smearing_method="fermi"
smearing_sigma=0.0

pyscf_calc=Pyscf_wrapper(
                        structure_file=structure_file,
                        chkfile=pyscf_chkfile,
                        )

pyscf_calc.run_pyscf(
                  omp_num_threads=omp_num_threads,
                  charge=charge,
                  spin=spin,
                  basis=basis,
                  ecp=ecp,
                  scf_method=scf_method,
                  dft_xc=dft_xc,
                  solver_newton=solver_newton,
                  MP2_flag=MP2_flag,
                  CCSD_flag=CCSD_flag,
                  pyscf_output=pyscf_output,
                  twist_average=twist_average,
                  exp_to_discard=exp_to_discard,
                  kpt=kpt,
                  kpt_grid=kpt_grid,
                  smearing_method=smearing_method,
                  smearing_sigma=smearing_sigma
                  )
                #INFO: ******************** input file end ********************


System: uname_result(system='Linux', node='spcc-200', release='5.4.0-66-generic', version='#74-Ubuntu SMP Wed Jan 27 22:54:38 UTC 2021', machine='x86_64', processor='x86_64')  Threads 128
Python 3.7.3 (default, Mar 27 2019, 22:11:17) 
[GCC 7.3.0]
numpy 1.20.1  scipy 1.7.3
Date: Mon Dec 19 18:03:00 2022
PySCF version 2.0.1
PySCF path  /home/nkousuke/application/anaconda3/lib/python3.7/site-packages/pyscf

[CONFIG] conf_file /home/nkousuke/.pyscf_conf.py
[INPUT] verbose = 5
[INPUT] max_memory = 507524.72265625 
[INPUT] num. atoms = 1
[INPUT] num. electrons = 1
[INPUT] charge = 1
[INPUT] spin (= nelec alpha-beta = 2S) = 1
[INPUT] symmetry False subgroup None
[INPUT] Mole.unit = A
[INPUT]  1 He     0.000000000000   0.000000000000   0.000000000000 AA    0.000000000000   0.000000000000   0.000000000000 Bohr
[INPUT] ---------------- BASIS SET ---------------- 
[INPUT] l, kappa, [nprim/nctr], expnt,             c_1 c_2 ...
[INPUT] He
[INPUT] 0    0    [8    /1   ]  39.320931         0.0100657
                                17.174528         0.0248762
                                7.501461          0.0582537
                                3.276475          0.1344596
                                1.431093          0.2443118
                                0.62507           0.3425061
                                0.273017          0.282647
                                0.119248          0.0739253
[INPUT] 0    0    [1    /1   ]  2.065565             1
[INPUT] 0    0    [1    /1   ]  0.657436             1
[INPUT] 0    0    [1    /1   ]  0.209251             1
[INPUT] 1    0    [1    /1   ]  5.989802             1
[INPUT] 1    0    [1    /1   ]  1.842859             1
[INPUT] 1    0    [1    /1   ]  0.566985             1
[INPUT] 2    0    [1    /1   ]  4.312957             1
[INPUT] 2    0    [1    /1   ]  1.213445             1
[INPUT] 3    0    [1    /1   ]  2.677255             1

nuclear repulsion = 0
number of shells = 10
number of NR pGTOs = 37
number of NR cGTOs = 30
basis = ccecp-ccpvqz
ecp = ccecp
CPU time:         8.20


******** <class 'pyscf.scf.rohf.ROHF'> ********
method = ROHF-RHF
initial guess = minao
damping factor = 0
level_shift factor = 0
DIIS = <class 'pyscf.scf.diis.CDIIS'>
diis_start_cycle = 1
diis_space = 8
SCF conv_tol = 1e-09
SCF conv_tol_grad = None
SCF max_cycles = 200
direct_scf = True
direct_scf_tol = 1e-13
chkfile to save SCF result = pyscf.chk
max_memory 507524 MB (current use 106 MB)
num. doubly occ = 0  num. singly occ = 1
Set gradient conv threshold to 3.16228e-05
E1 = -3.8853137071813375  Ecoul = 1.0237610707062523
init E= -2.86155263647509
cond(S) = 913.0575991543019
    CPU time for initialize scf     74.41 sec, wall time      0.77 sec
E1 = -1.9434654839618848  Ecoul = 3.837161821457937e-17
cycle= 1 E= -1.94346548396188  delta_E= 0.918  |g|= 0.328  |ddm|= 1.01
    CPU time for cycle= 1     15.34 sec, wall time      0.13 sec
E1 = -1.9991566286903437  Ecoul = -6.179952383167375e-18
cycle= 2 E= -1.99915662869034  delta_E= -0.0557  |g|= 0.0478  |ddm|= 0.64
    CPU time for cycle= 2     12.01 sec, wall time      0.10 sec
E1 = -1.9997866503669923  Ecoul = -6.722053469410127e-17
cycle= 3 E= -1.99978665036699  delta_E= -0.00063  |g|= 0.00221  |ddm|= 0.0844
    CPU time for cycle= 3     11.05 sec, wall time      0.09 sec
E1 = -1.999787006524869  Ecoul = -2.1185310450366757e-16
cycle= 4 E= -1.99978700652487  delta_E= -3.56e-07  |g|= 0.000107  |ddm|= 0.00531
    CPU time for cycle= 4     12.78 sec, wall time      0.10 sec
E1 = -1.9997870076067277  Ecoul = -2.3852447794681098e-17
cycle= 5 E= -1.99978700760673  delta_E= -1.08e-09  |g|= 1.24e-06  |ddm|= 0.000261
    CPU time for cycle= 5     13.31 sec, wall time      0.10 sec
E1 = -1.9997870076076767  Ecoul = 1.702197410802242e-17
cycle= 6 E= -1.99978700760768  delta_E= -9.49e-13  |g|= 1.7e-08  |ddm|= 2.86e-06
    CPU time for cycle= 6     13.29 sec, wall time      0.10 sec
E1 = -1.9997870076076774  Ecoul = 3.7838655819744105e-17
Extra cycle  E= -1.99978700760768  delta_E= -6.66e-16  |g|= 2.24e-09  |ddm|= 4.89e-08
    CPU time for scf_cycle    165.50 sec, wall time      1.50 sec
    CPU time for SCF    165.50 sec, wall time      1.50 sec
converged SCF energy = -1.99978700760768
