#INFO: **** input file is /home/nkousuke/lustre/toBeSync/turboRVB/05turbo-genius-development/turbogenius_paper/04data/sanity_checks/03pyscf_HF_turbo_VMC_via_trexio/00open_boundary/results/Si/pyscf-HF-workflow/run.py ****

from pyscf_wrapper import Pyscf_wrapper

# input variables
pyscf_chkfile="pyscf.chk"
structure_file="Si.xyz"

# input variables
omp_num_threads=128
charge=0
spin=2
basis="ccecp-ccpvqz"
ecp="ccecp"
scf_method="HF"
dft_xc="NA"
solver_newton=False
MP2_flag=False
CCSD_flag=False
pyscf_output="out.pyscf"
twist_average=False
exp_to_discard=0.0
kpt=[0.0, 0.0, 0.0]
kpt_grid=[1, 1, 1]
smearing_method="fermi"
smearing_sigma=0.0

pyscf_calc=Pyscf_wrapper(
                        structure_file=structure_file,
                        chkfile=pyscf_chkfile,
                        )

pyscf_calc.run_pyscf(
                  omp_num_threads=omp_num_threads,
                  charge=charge,
                  spin=spin,
                  basis=basis,
                  ecp=ecp,
                  scf_method=scf_method,
                  dft_xc=dft_xc,
                  solver_newton=solver_newton,
                  MP2_flag=MP2_flag,
                  CCSD_flag=CCSD_flag,
                  pyscf_output=pyscf_output,
                  twist_average=twist_average,
                  exp_to_discard=exp_to_discard,
                  kpt=kpt,
                  kpt_grid=kpt_grid,
                  smearing_method=smearing_method,
                  smearing_sigma=smearing_sigma
                  )
                #INFO: ******************** input file end ********************


System: uname_result(system='Linux', node='spcc-145', release='5.4.0-66-generic', version='#74-Ubuntu SMP Wed Jan 27 22:54:38 UTC 2021', machine='x86_64', processor='x86_64')  Threads 128
Python 3.7.3 (default, Mar 27 2019, 22:11:17) 
[GCC 7.3.0]
numpy 1.20.1  scipy 1.7.3
Date: Mon Dec 19 18:05:33 2022
PySCF version 2.0.1
PySCF path  /home/nkousuke/application/anaconda3/lib/python3.7/site-packages/pyscf

[CONFIG] conf_file /home/nkousuke/.pyscf_conf.py
[INPUT] verbose = 5
[INPUT] max_memory = 506555.25390625 
[INPUT] num. atoms = 1
[INPUT] num. electrons = 4
[INPUT] charge = 0
[INPUT] spin (= nelec alpha-beta = 2S) = 2
[INPUT] symmetry False subgroup None
[INPUT] Mole.unit = A
[INPUT]  1 Si     0.000000000000   0.000000000000   0.000000000000 AA    0.000000000000   0.000000000000   0.000000000000 Bohr
[INPUT] ---------------- BASIS SET ---------------- 
[INPUT] l, kappa, [nprim/nctr], expnt,             c_1 c_2 ...
[INPUT] Si
[INPUT] 0    0    [10   /1   ]  9.998274          0.002894
                                5.517644          -0.014523
                                3.044965          0.077634
                                1.680393          -0.224022
                                0.927341          -0.14908
                                0.511762          0.085944
                                0.282421          0.355394
                                0.155857          0.445219
                                0.086011          0.26723
                                0.047466          0.060787
[INPUT] 0    0    [1    /1   ]  0.488504             1
[INPUT] 0    0    [1    /1   ]  0.199457             1
[INPUT] 0    0    [1    /1   ]  0.081439             1
[INPUT] 1    0    [10   /1   ]  5.027868          -0.003242
                                2.867751          0.010649
                                1.635683          -0.049761
                                0.932947          -1.7e-05
                                0.532126          0.10606
                                0.303509          0.236202
                                0.173113          0.310665
                                0.098739          0.294696
                                0.056318          0.153898
                                0.032122          0.042337
[INPUT] 1    0    [1    /1   ]  1.22579              1
[INPUT] 1    0    [1    /1   ]  0.501364             1
[INPUT] 1    0    [1    /1   ]  0.205064             1
[INPUT] 2    0    [1    /1   ]  0.997003             1
[INPUT] 2    0    [1    /1   ]  0.365942             1
[INPUT] 2    0    [1    /1   ]  0.134316             1
[INPUT] 3    0    [1    /1   ]  0.549116             1
[INPUT] 3    0    [1    /1   ]  0.214998             1
[INPUT] 4    0    [1    /1   ]  0.459547             1

nuclear repulsion = 0
number of shells = 14
number of NR pGTOs = 90
number of NR cGTOs = 54
basis = ccecp-ccpvqz
ecp = ccecp
CPU time:         7.16


******** <class 'pyscf.scf.rohf.ROHF'> ********
method = ROHF-RHF
initial guess = minao
damping factor = 0
level_shift factor = 0
DIIS = <class 'pyscf.scf.diis.CDIIS'>
diis_start_cycle = 1
diis_space = 8
SCF conv_tol = 1e-09
SCF conv_tol_grad = None
SCF max_cycles = 200
direct_scf = True
direct_scf_tol = 1e-13
chkfile to save SCF result = pyscf.chk
max_memory 506555 MB (current use 106 MB)
num. doubly occ = 1  num. singly occ = 2
Set gradient conv threshold to 3.16228e-05
E1 = -5.668055588485325  Ecoul = 2.226183077204139
init E= -3.44187251128119
cond(S) = 719.7571100371175
    CPU time for initialize scf     79.61 sec, wall time      0.80 sec

WARN: HOMO -0.0722101712756431 >= LUMO -0.0722101712756445

                  Roothaan           | alpha              | beta
  Highest 2-occ =  -0.54145171641569 |  -0.54145171641569 |  -0.54145171641569
  Lowest 0-occ =  -0.0722101712756445 | -0.0722101712756446 | -0.0722101712756446
  1-occ =         -0.0722101712756437 | -0.0722101712756452 | -0.0722101712756452
  1-occ =         -0.0722101712756431 | -0.0722101712756452 | -0.0722101712756452
  Roothaan mo_energy =
[-0.54145172 -0.07221017 -0.07221017 -0.07221017  0.25763706  0.31403121
  0.31403121  0.31403121  0.31403121  0.31403121  0.31470533  0.31470533
  0.31470533  0.80500152  0.80500152  0.80500152  0.80500152  0.80500152
  0.80500152  0.80500152  0.97547048  0.97547048  0.97547048  0.97547048
  0.97547048  1.37125344  1.37125344  1.37125344  1.43387851  2.22006868
  2.22006868  2.22006868  2.22006868  2.22006868  2.22006868  2.22006868
  2.22006868  2.22006868  2.29789771  2.29789771  2.29789771  2.29789771
  2.29789771  2.29789771  2.29789771  2.6916386   2.6916386   2.6916386
  2.6916386   2.6916386   5.1444512   5.1444512   5.1444512   9.69096016]
E1 = -5.556625891811241  Ecoul = 1.8963888149208281
cycle= 1 E= -3.66023707689041  delta_E= -0.218  |g|= 0.0776  |ddm|= 2.44
    CPU time for cycle= 1     16.90 sec, wall time      0.13 sec
  HOMO = -0.141189246788622  LUMO = -0.0203027852901338
                  Roothaan           | alpha              | beta
  Highest 2-occ = -0.577232288309546 | -0.647910105183411 |  -0.50655447143568
  Lowest 0-occ =  -0.0203027852901338 | -0.0375534999465649 | -0.0030520706337028
  1-occ =         -0.141189246788625 | -0.308786279891094 | 0.0428514206541031
  1-occ =         -0.141189246788622 | -0.308786279891093 | 0.0428514206541035
  Roothaan mo_energy =
[-0.57723229 -0.14118925 -0.14118925 -0.02030279  0.238122    0.2906144
  0.29191116  0.29191116  0.29620831  0.29634162  0.29634162  0.30652704
  0.30652704  0.77328024  0.77583334  0.77583334  0.78387876  0.78387876
  0.79714949  0.79714949  0.92748187  0.93220259  0.93220259  0.94705981
  0.94705981  1.31772841  1.33812242  1.33812242  1.39228295  2.16723892
  2.16947861  2.16947861  2.1762034   2.1762034   2.18743197  2.18743197
  2.20320326  2.20320326  2.23852869  2.24187373  2.24187373  2.25200187
  2.25200187  2.2690493   2.2690493   2.62548294  2.63126772  2.63126772
  2.64936417  2.64936417  5.06993759  5.08794068  5.08794068  9.62360968]
E1 = -5.669453405778127  Ecoul = 1.9971963395879593
cycle= 2 E= -3.67225706619017  delta_E= -0.012  |g|= 0.0211  |ddm|= 1.45
    CPU time for cycle= 2     26.84 sec, wall time      0.21 sec
  HOMO = -0.113913484534106  LUMO = 0.00174952754319414
                  Roothaan           | alpha              | beta
  Highest 2-occ = -0.547751315453539 | -0.621911950667452 | -0.462552239593067
  Lowest 0-occ =  0.00174952754319414 | -0.0115756531876214 | 0.0231386539308199
  1-occ =         -0.113913484534106 |  -0.29539480388572 | 0.0786556337070649
  1-occ =         -0.113913484534106 |  -0.29539480388572 |  0.078655633707065
  Roothaan mo_energy =
[-5.47751315e-01 -1.13913485e-01 -1.13913485e-01  1.74952754e-03
  2.53212057e-01  3.07642059e-01  3.08941755e-01  3.08941755e-01
  3.11178716e-01  3.11178716e-01  3.13628095e-01  3.14048549e-01
  3.14048549e-01  7.90491613e-01  7.93119117e-01  7.93119117e-01
  8.01432269e-01  8.01432269e-01  8.15133970e-01  8.15133970e-01
  9.59951311e-01  9.64734326e-01  9.64734326e-01  9.79858172e-01
  9.79858172e-01  1.35172944e+00  1.37225399e+00  1.37225399e+00
  1.42707560e+00  2.19807094e+00  2.20047405e+00  2.20047405e+00
  2.20769119e+00  2.20769119e+00  2.21974751e+00  2.21974751e+00
  2.23669465e+00  2.23669465e+00  2.27657347e+00  2.28019698e+00
  2.28019698e+00  2.29119084e+00  2.29119084e+00  2.30971252e+00
  2.30971252e+00  2.67141131e+00  2.67776753e+00  2.67776753e+00
  2.69768733e+00  2.69768733e+00  5.12314053e+00  5.14316076e+00
  5.14316076e+00  9.68255558e+00]
E1 = -5.668246930452781  Ecoul = 1.9957467461520073
cycle= 3 E= -3.67250018430077  delta_E= -0.000243  |g|= 0.00777  |ddm|= 0.0856
    CPU time for cycle= 3     18.52 sec, wall time      0.15 sec
  HOMO = -0.108248784112119  LUMO = 0.00596452760101821
                  Roothaan           | alpha              | beta
  Highest 2-occ = -0.540811120334176 | -0.622098298016652 | -0.461779070016019
  Lowest 0-occ =  0.00596452760101821 | -0.0117640221427506 | 0.0227132027020586
  1-occ =         -0.108248784112119 | -0.296447691394687 | 0.0791917869651398
  1-occ =         -0.108248784112119 | -0.296447691394687 |   0.07919178696514
  Roothaan mo_energy =
[-5.40811120e-01 -1.08248784e-01 -1.08248784e-01  5.96452760e-03
  2.57302561e-01  3.11274092e-01  3.11365860e-01  3.11365860e-01
  3.12576373e-01  3.12576373e-01  3.17478803e-01  3.18030842e-01
  3.18030842e-01  7.94304650e-01  7.96985315e-01  7.96985315e-01
  8.05475182e-01  8.05475182e-01  8.19466284e-01  8.19466284e-01
  9.66100024e-01  9.70998471e-01  9.70998471e-01  9.86400042e-01
  9.86400042e-01  1.35819115e+00  1.37903820e+00  1.37903820e+00
  1.43443163e+00  2.20433669e+00  2.20681807e+00  2.20681807e+00
  2.21427145e+00  2.21427145e+00  2.22672636e+00  2.22672636e+00
  2.24424230e+00  2.24424230e+00  2.28368201e+00  2.28742953e+00
  2.28742953e+00  2.29884161e+00  2.29884161e+00  2.31805643e+00
  2.31805643e+00  2.67927449e+00  2.68588827e+00  2.68588827e+00
  2.70664989e+00  2.70664989e+00  5.13167137e+00  5.15261553e+00
  5.15261553e+00  9.69217774e+00]
E1 = -5.6680444701911  Ecoul = 1.99549733287559
cycle= 4 E= -3.67254713731551  delta_E= -4.7e-05  |g|= 0.000504  |ddm|= 0.0575
    CPU time for cycle= 4     23.02 sec, wall time      0.18 sec
  HOMO = -0.108915196327767  LUMO = 0.00541884839644122
                  Roothaan           | alpha              | beta
  Highest 2-occ = -0.541506047170001 | -0.621948899233922 | -0.460968006632491
  Lowest 0-occ =  0.00541884839644122 | -0.0118182312900764 |  0.022709455892866
  1-occ =         -0.108915196327768 | -0.297066479324663 | 0.0792690447794005
  1-occ =         -0.108915196327767 | -0.297066479324663 | 0.0792690447794013
  Roothaan mo_energy =
[-5.41506047e-01 -1.08915196e-01 -1.08915196e-01  5.41884840e-03
  2.56892080e-01  3.10824606e-01  3.11218031e-01  3.11218031e-01
  3.12125410e-01  3.12125410e-01  3.17044847e-01  3.17558995e-01
  3.17558995e-01  7.93835037e-01  7.96512956e-01  7.96512956e-01
  8.04989491e-01  8.04989491e-01  8.18959966e-01  8.18959966e-01
  9.65310713e-01  9.70197722e-01  9.70197722e-01  9.85580870e-01
  9.85580870e-01  1.35737195e+00  1.37817038e+00  1.37817038e+00
  1.43356144e+00  2.20353509e+00  2.20601115e+00  2.20601115e+00
  2.21344825e+00  2.21344825e+00  2.22587494e+00  2.22587494e+00
  2.24334921e+00  2.24334921e+00  2.28275279e+00  2.28649311e+00
  2.28649311e+00  2.29787612e+00  2.29787612e+00  2.31704380e+00
  2.31704380e+00  2.67823005e+00  2.68482885e+00  2.68482885e+00
  2.70553781e+00  2.70553781e+00  5.13052538e+00  5.15141172e+00
  5.15141172e+00  9.69093700e+00]
E1 = -5.667980271212737  Ecoul = 1.9954330223887324
cycle= 5 E= -3.672547248824  delta_E= -1.12e-07  |g|= 2.94e-05  |ddm|= 0.00402
    CPU time for cycle= 5     22.52 sec, wall time      0.18 sec
  HOMO = -0.108912770413353  LUMO = 0.00542487281674149
                  Roothaan           | alpha              | beta
  Highest 2-occ = -0.541496135056063 | -0.621971270749705 | -0.461021938289792
  Lowest 0-occ =  0.00542487281674149 | -0.0118376273591669 |  0.022689171241564
  1-occ =         -0.108912770413355 | -0.297060508911706 | 0.0792420001966578
  1-occ =         -0.108912770413353 | -0.297060508911706 | 0.0792420001966579
  Roothaan mo_energy =
[-5.41496135e-01 -1.08912770e-01 -1.08912770e-01  5.42487282e-03
  2.56903503e-01  3.10831077e-01  3.11223574e-01  3.11223574e-01
  3.12130894e-01  3.12130894e-01  3.17054364e-01  3.17564583e-01
  3.17564583e-01  7.93841944e-01  7.96519987e-01  7.96519987e-01
  8.04996148e-01  8.04996148e-01  8.18966390e-01  8.18966390e-01
  9.65322603e-01  9.70209938e-01  9.70209938e-01  9.85593295e-01
  9.85593295e-01  1.35738459e+00  1.37818334e+00  1.37818334e+00
  1.43357610e+00  2.20354597e+00  2.20602218e+00  2.20602218e+00
  2.21345968e+00  2.21345968e+00  2.22588697e+00  2.22588697e+00
  2.24336193e+00  2.24336193e+00  2.28276569e+00  2.28650631e+00
  2.28650631e+00  2.29789033e+00  2.29789033e+00  2.31705935e+00
  2.31705935e+00  2.67824514e+00  2.68484478e+00  2.68484478e+00
  2.70555600e+00  2.70555600e+00  5.13054222e+00  5.15143154e+00
  5.15143154e+00  9.69095684e+00]
E1 = -5.66798590089521  Ecoul = 1.9954386510314583
cycle= 6 E= -3.67254724986375  delta_E= -1.04e-09  |g|= 2.55e-06  |ddm|= 0.000311
    CPU time for cycle= 6     23.54 sec, wall time      0.18 sec
  HOMO = -0.108908632076033  LUMO = 0.00542677631388961
                  Roothaan           | alpha              | beta
  Highest 2-occ = -0.541492599966799 | -0.621968921904346 | -0.461015856610172
  Lowest 0-occ =  0.00542677631388961 | -0.0118363573669456 | 0.0226905350809699
  1-occ =         -0.108908632076034 | -0.297061910160096 | 0.0792444452147334
  1-occ =         -0.108908632076033 | -0.297061910160096 | 0.0792444452147337
  Roothaan mo_energy =
[-5.41492600e-01 -1.08908632e-01 -1.08908632e-01  5.42677631e-03
  2.56904640e-01  3.10832672e-01  3.11222320e-01  3.11222320e-01
  3.12132606e-01  3.12132606e-01  3.17055965e-01  3.17566433e-01
  3.17566433e-01  7.93843651e-01  7.96521687e-01  7.96521687e-01
  8.04997907e-01  8.04997907e-01  8.18968209e-01  8.18968209e-01
  9.65325301e-01  9.70212631e-01  9.70212631e-01  9.85595948e-01
  9.85595948e-01  1.35738737e+00  1.37818617e+00  1.37818617e+00
  1.43357875e+00  2.20354877e+00  2.20602499e+00  2.20602499e+00
  2.21346255e+00  2.21346255e+00  2.22588992e+00  2.22588992e+00
  2.24336503e+00  2.24336503e+00  2.28276887e+00  2.28650951e+00
  2.28650951e+00  2.29789361e+00  2.29789361e+00  2.31706278e+00
  2.31706278e+00  2.67824870e+00  2.68484838e+00  2.68484838e+00
  2.70555974e+00  2.70555974e+00  5.13054620e+00  5.15143565e+00
  5.15143565e+00  9.69096116e+00]
E1 = -5.66798372676976  Ecoul = 1.9954364769024888
cycle= 7 E= -3.67254724986727  delta_E= -3.52e-12  |g|= 4.15e-07  |ddm|= 2.29e-05
    CPU time for cycle= 7     21.47 sec, wall time      0.17 sec
  HOMO = -0.108909295439267  LUMO = 0.00542654704029475
                  Roothaan           | alpha              | beta
  Highest 2-occ = -0.541493059787517 |  -0.62196945837485 | -0.461016661200187
  Lowest 0-occ =  0.00542654704029475 | -0.0118368966440262 | 0.0226899907246151
  1-occ =         -0.108909295439268 | -0.297062326694988 | 0.0792438392982127
  1-occ =         -0.108909295439267 | -0.297062326694988 | 0.0792438392982129
  Roothaan mo_energy =
[-5.41493060e-01 -1.08909295e-01 -1.08909295e-01  5.42654704e-03
  2.56904578e-01  3.10832502e-01  3.11222638e-01  3.11222638e-01
  3.12132415e-01  3.12132415e-01  3.17055812e-01  3.17566200e-01
  3.17566200e-01  7.93843486e-01  7.96521518e-01  7.96521518e-01
  8.04997717e-01  8.04997717e-01  8.18967991e-01  8.18967991e-01
  9.65325021e-01  9.70212350e-01  9.70212350e-01  9.85595654e-01
  9.85595654e-01  1.35738709e+00  1.37818586e+00  1.37818586e+00
  1.43357851e+00  2.20354848e+00  2.20602470e+00  2.20602470e+00
  2.21346224e+00  2.21346224e+00  2.22588960e+00  2.22588960e+00
  2.24336467e+00  2.24336467e+00  2.28276854e+00  2.28650917e+00
  2.28650917e+00  2.29789325e+00  2.29789325e+00  2.31706238e+00
  2.31706238e+00  2.67824830e+00  2.68484797e+00  2.68484797e+00
  2.70555931e+00  2.70555931e+00  5.13054574e+00  5.15143516e+00
  5.15143516e+00  9.69096063e+00]
E1 = -5.66798425606237  Ecoul = 1.9954370061947189
Extra cycle  E= -3.67254724986765  delta_E= -3.8e-13  |g|= 1.25e-07  |ddm|= 7.07e-06
    CPU time for scf_cycle    252.85 sec, wall time      2.16 sec
    CPU time for SCF    252.85 sec, wall time      2.16 sec
converged SCF energy = -3.67254724986765
