#INFO: **** input file is /home/nkousuke/lustre/toBeSync/turboRVB/05turbo-genius-development/turbogenius_paper/04data/sanity_checks/03pyscf_HF_turbo_VMC_via_trexio/00open_boundary/results/He/pyscf-HF-workflow/run.py ****

from pyscf_wrapper import Pyscf_wrapper

# input variables
pyscf_chkfile="pyscf.chk"
structure_file="He.xyz"

# input variables
omp_num_threads=128
charge=0
spin=0
basis="ccecp-ccpvqz"
ecp="ccecp"
scf_method="HF"
dft_xc="NA"
solver_newton=False
MP2_flag=False
CCSD_flag=False
pyscf_output="out.pyscf"
twist_average=False
exp_to_discard=0.0
kpt=[0.0, 0.0, 0.0]
kpt_grid=[1, 1, 1]
smearing_method="fermi"
smearing_sigma=0.0

pyscf_calc=Pyscf_wrapper(
                        structure_file=structure_file,
                        chkfile=pyscf_chkfile,
                        )

pyscf_calc.run_pyscf(
                  omp_num_threads=omp_num_threads,
                  charge=charge,
                  spin=spin,
                  basis=basis,
                  ecp=ecp,
                  scf_method=scf_method,
                  dft_xc=dft_xc,
                  solver_newton=solver_newton,
                  MP2_flag=MP2_flag,
                  CCSD_flag=CCSD_flag,
                  pyscf_output=pyscf_output,
                  twist_average=twist_average,
                  exp_to_discard=exp_to_discard,
                  kpt=kpt,
                  kpt_grid=kpt_grid,
                  smearing_method=smearing_method,
                  smearing_sigma=smearing_sigma
                  )
                #INFO: ******************** input file end ********************


System: uname_result(system='Linux', node='spcc-200', release='5.4.0-66-generic', version='#74-Ubuntu SMP Wed Jan 27 22:54:38 UTC 2021', machine='x86_64', processor='x86_64')  Threads 128
Python 3.7.3 (default, Mar 27 2019, 22:11:17) 
[GCC 7.3.0]
numpy 1.20.1  scipy 1.7.3
Date: Mon Dec 19 18:05:15 2022
PySCF version 2.0.1
PySCF path  /home/nkousuke/application/anaconda3/lib/python3.7/site-packages/pyscf

[CONFIG] conf_file /home/nkousuke/.pyscf_conf.py
[INPUT] verbose = 5
[INPUT] max_memory = 507467.76171875 
[INPUT] num. atoms = 1
[INPUT] num. electrons = 2
[INPUT] charge = 0
[INPUT] spin (= nelec alpha-beta = 2S) = 0
[INPUT] symmetry False subgroup None
[INPUT] Mole.unit = A
[INPUT]  1 He     0.000000000000   0.000000000000   0.000000000000 AA    0.000000000000   0.000000000000   0.000000000000 Bohr
[INPUT] ---------------- BASIS SET ---------------- 
[INPUT] l, kappa, [nprim/nctr], expnt,             c_1 c_2 ...
[INPUT] He
[INPUT] 0    0    [8    /1   ]  39.320931         0.0100657
                                17.174528         0.0248762
                                7.501461          0.0582537
                                3.276475          0.1344596
                                1.431093          0.2443118
                                0.62507           0.3425061
                                0.273017          0.282647
                                0.119248          0.0739253
[INPUT] 0    0    [1    /1   ]  2.065565             1
[INPUT] 0    0    [1    /1   ]  0.657436             1
[INPUT] 0    0    [1    /1   ]  0.209251             1
[INPUT] 1    0    [1    /1   ]  5.989802             1
[INPUT] 1    0    [1    /1   ]  1.842859             1
[INPUT] 1    0    [1    /1   ]  0.566985             1
[INPUT] 2    0    [1    /1   ]  4.312957             1
[INPUT] 2    0    [1    /1   ]  1.213445             1
[INPUT] 3    0    [1    /1   ]  2.677255             1

nuclear repulsion = 0
number of shells = 10
number of NR pGTOs = 37
number of NR cGTOs = 30
basis = ccecp-ccpvqz
ecp = ccecp
CPU time:         4.96


******** <class 'pyscf.scf.hf.RHF'> ********
method = RHF
initial guess = minao
damping factor = 0
level_shift factor = 0
DIIS = <class 'pyscf.scf.diis.CDIIS'>
diis_start_cycle = 1
diis_space = 8
SCF conv_tol = 1e-09
SCF conv_tol_grad = None
SCF max_cycles = 200
direct_scf = True
direct_scf_tol = 1e-13
chkfile to save SCF result = pyscf.chk
max_memory 507467 MB (current use 106 MB)
Set gradient conv threshold to 3.16228e-05
E1 = -3.8853137071813375  E_coul = 1.0237610707062523
init E= -2.86155263647509
cond(S) = 913.0575991543019
    CPU time for initialize scf     70.58 sec, wall time      0.73 sec
  HOMO = -0.918951713348408  LUMO = 0.61457720321931
  mo_energy =
[-0.91895171  0.6145772   1.10542571  1.10542571  1.10542571  3.52992135
  3.86006741  3.86006741  3.86006741  3.86006741  3.86006741  4.94937116
  4.94937116  4.94937116 11.57675575 11.57675575 11.57675575 11.57675575
 11.57675575 11.57675575 11.57675575 16.20741836 16.20741836 16.20741836
 16.20741836 16.20741836 17.00328738 18.09144132 18.09144132 18.09144132]
E1 = -3.8869309679237714  E_coul = 1.0252541239829875
cycle= 1 E= -2.86167684394078  delta_E= -0.000124  |g|= 0.00347  |ddm|= 0.0414
    CPU time for cycle= 1     18.33 sec, wall time      0.15 sec
  HOMO = -0.918212437899205  LUMO = 0.614927416865689
  mo_energy =
[-0.91821244  0.61492742  1.10639673  1.10639673  1.10639673  3.53137324
  3.86138857  3.86138857  3.86138857  3.86138857  3.86138857  4.95070407
  4.95070407  4.95070407 11.57858306 11.57858306 11.57858306 11.57858306
 11.57858306 11.57858306 11.57858306 16.20918291 16.20918291 16.20918291
 16.20918291 16.20918291 17.00456622 18.09294518 18.09294518 18.09294518]
E1 = -3.88738409973531  E_coul = 1.0257047128842927
cycle= 2 E= -2.86167938685102  delta_E= -2.54e-06  |g|= 0.000582  |ddm|= 0.00588
    CPU time for cycle= 2     12.77 sec, wall time      0.11 sec
  HOMO = -0.917935921587022  LUMO = 0.615025842909417
  mo_energy =
[-0.91793592  0.61502584  1.10667298  1.10667298  1.10667298  3.53182134
  3.86175606  3.86175606  3.86175606  3.86175606  3.86175606  4.95116
  4.95116     4.95116    11.57912715 11.57912715 11.57912715 11.57912715
 11.57912715 11.57912715 11.57912715 16.20984181 16.20984181 16.20984181
 16.20984181 16.20984181 17.00525343 18.09364166 18.09364166 18.09364166]
E1 = -3.887497121294724  E_coul = 1.0258176488932298
cycle= 3 E= -2.86167947240149  delta_E= -8.56e-08  |g|= 6.9e-06  |ddm|= 0.00131
    CPU time for cycle= 3     15.79 sec, wall time      0.13 sec
  HOMO = -0.917930810715323  LUMO = 0.615026663024585
  mo_energy =
[-0.91793081  0.61502666  1.10667529  1.10667529  1.10667529  3.53182653
  3.86175873  3.86175873  3.86175873  3.86175873  3.86175873  4.95116706
  4.95116706  4.95116706 11.57913272 11.57913272 11.57913272 11.57913272
 11.57913272 11.57913272 11.57913272 16.20985408 16.20985408 16.20985408
 16.20985408 16.20985408 17.00527298 18.09365891 18.09365891 18.09365891]
E1 = -3.8874972388251403  E_coul = 1.0258177664186396
cycle= 4 E= -2.8616794724065  delta_E= -5.01e-12  |g|= 1.45e-07  |ddm|= 1.08e-05
    CPU time for cycle= 4     12.41 sec, wall time      0.10 sec
  HOMO = -0.91793085299393  LUMO = 0.615026654748268
  mo_energy =
[-0.91793085  0.61502665  1.10667527  1.10667527  1.10667527  3.53182648
  3.86175871  3.86175871  3.86175871  3.86175871  3.86175871  4.951167
  4.951167    4.951167   11.57913267 11.57913267 11.57913267 11.57913267
 11.57913267 11.57913267 11.57913267 16.209854   16.209854   16.209854
 16.209854   16.209854   17.00527284 18.09365878 18.09365878 18.09365878]
E1 = -3.8874972326839163  E_coul = 1.0258177602774154
Extra cycle  E= -2.8616794724065  delta_E= -4.44e-16  |g|= 8.6e-09  |ddm|= 2.68e-07
    CPU time for scf_cycle    142.79 sec, wall time      1.32 sec
    CPU time for SCF    142.79 sec, wall time      1.32 sec
converged SCF energy = -2.8616794724065
