#INFO: **** input file is /home/nkousuke/lustre/toBeSync/turboRVB/05turbo-genius-development/turbogenius_paper/04data/sanity_checks/02pyscf_prep_LDA_via_trexio/00open_boundary/results/H2S/pyscf-LDA-workflow/run.py ****

from pyscf_wrapper import Pyscf_wrapper

# input variables
pyscf_chkfile="pyscf.chk"
structure_file="H2S.xyz"

# input variables
omp_num_threads=128
charge=0
spin=0
basis="ccecp-ccpvqz"
ecp="ccecp"
scf_method="DFT"
dft_xc="LDA_X,LDA_C_PZ"
solver_newton=False
MP2_flag=False
CCSD_flag=False
pyscf_output="out.pyscf"
twist_average=False
exp_to_discard=0.1
kpt=[0.0, 0.0, 0.0]
kpt_grid=[1, 1, 1]
smearing_method="fermi"
smearing_sigma=0.0

pyscf_calc=Pyscf_wrapper(
                        structure_file=structure_file,
                        chkfile=pyscf_chkfile,
                        )

pyscf_calc.run_pyscf(
                  omp_num_threads=omp_num_threads,
                  charge=charge,
                  spin=spin,
                  basis=basis,
                  ecp=ecp,
                  scf_method=scf_method,
                  dft_xc=dft_xc,
                  solver_newton=solver_newton,
                  MP2_flag=MP2_flag,
                  CCSD_flag=CCSD_flag,
                  pyscf_output=pyscf_output,
                  twist_average=twist_average,
                  exp_to_discard=exp_to_discard,
                  kpt=kpt,
                  kpt_grid=kpt_grid,
                  smearing_method=smearing_method,
                  smearing_sigma=smearing_sigma
                  )
                #INFO: ******************** input file end ********************


System: uname_result(system='Linux', node='spcc-109', release='5.4.0-66-generic', version='#74-Ubuntu SMP Wed Jan 27 22:54:38 UTC 2021', machine='x86_64', processor='x86_64')  Threads 128
Python 3.7.3 (default, Mar 27 2019, 22:11:17) 
[GCC 7.3.0]
numpy 1.20.1  scipy 1.7.3
Date: Thu Dec 22 06:16:34 2022
PySCF version 2.0.1
PySCF path  /home/nkousuke/application/anaconda3/lib/python3.7/site-packages/pyscf

[CONFIG] conf_file /home/nkousuke/.pyscf_conf.py
[INPUT] verbose = 5
[INPUT] max_memory = 507856.80859375 
[INPUT] num. atoms = 3
[INPUT] num. electrons = 8
[INPUT] charge = 0
[INPUT] spin (= nelec alpha-beta = 2S) = 0
[INPUT] symmetry False subgroup None
[INPUT] Mole.unit = A
[INPUT]  1 S      0.000000000000   0.000000000000   0.103100000000 AA    0.000000000000   0.000000000000   0.194830763443 Bohr
[INPUT]  2 H      0.000000000000   0.960820000000  -0.824760000000 AA    0.000000000000   1.815686655005  -1.558570518496 Bohr
[INPUT]  3 H      0.000000000000  -0.960820000000  -0.824760000000 AA    0.000000000000  -1.815686655005  -1.558570518496 Bohr
[INPUT] ---------------- BASIS SET ---------------- 
[INPUT] l, kappa, [nprim/nctr], expnt,             c_1 c_2 ...
[INPUT] H
[INPUT] 0    0    [8    /1   ]  23.843185         0.0041149
                                10.212443         0.0104644
                                4.374164          0.0280111
                                1.873529          0.0758862
                                0.802465          0.1821062
                                0.343709          0.3485214
                                0.147217          0.3782313
                                0.063055          0.1164241
[INPUT] 0    0    [1    /1   ]  0.081856             1
[INPUT] 0    0    [1    /1   ]  0.233254             1
[INPUT] 0    0    [1    /1   ]  0.664673             1
[INPUT] 1    0    [1    /1   ]  0.284469             1
[INPUT] 1    0    [1    /1   ]  0.847159             1
[INPUT] 1    0    [1    /1   ]  2.522868             1
[INPUT] 2    0    [1    /1   ]  0.665279             1
[INPUT] 2    0    [1    /1   ]  2.048739             1
[INPUT] 3    0    [1    /1   ]  1.42146              1
[INPUT] S
[INPUT] 0    0    [10   /1   ]  14.05257          0.002102
                                7.864913          -0.011042
                                4.401818          0.086618
                                2.4636            -0.271004
                                1.378823          -0.151274
                                0.771696          0.136044
                                0.431901          0.39436
                                0.241726          0.432098
                                0.135289          0.230974
                                0.075718          0.051205
[INPUT] 0    0    [1    /1   ]  0.818729             1
[INPUT] 0    0    [1    /1   ]  0.332501             1
[INPUT] 0    0    [1    /1   ]  0.135035             1
[INPUT] 1    0    [10   /1   ]  6.808844          -0.003573
                                3.94156           0.001903
                                2.281723          -0.065016
                                1.320863          0.042305
                                0.764632          0.158772
                                0.442637          0.278172
                                0.256237          0.293821
                                0.148333          0.248015
                                0.085868          0.114905
                                0.049708          0.032934
[INPUT] 1    0    [1    /1   ]  2.088209             1
[INPUT] 1    0    [1    /1   ]  0.838124             1
[INPUT] 1    0    [1    /1   ]  0.33639              1
[INPUT] 2    0    [1    /1   ]  1.68189              1
[INPUT] 2    0    [1    /1   ]  0.613672             1
[INPUT] 2    0    [1    /1   ]  0.223911             1
[INPUT] 3    0    [1    /1   ]  0.898397             1
[INPUT] 3    0    [1    /1   ]  0.339271             1
[INPUT] 4    0    [1    /1   ]  0.691446             1

nuclear repulsion = 5.0295278382091
number of shells = 34
number of NR pGTOs = 164
number of NR cGTOs = 114
basis = ccecp-ccpvqz
ecp = ccecp
CPU time:         5.14


******** <class 'pyscf.df.df_jk.density_fit.<locals>.DFHF'> ********
method = DFHF-RKS-RHF
initial guess = minao
damping factor = 0
level_shift factor = 0
DIIS = <class 'pyscf.scf.diis.CDIIS'>
diis_start_cycle = 1
diis_space = 8
SCF conv_tol = 1e-09
SCF conv_tol_grad = None
SCF max_cycles = 200
direct_scf = True
direct_scf_tol = 1e-13
chkfile to save SCF result = pyscf.chk
max_memory 507856 MB (current use 105 MB)
XC library pyscf.dft.libxc version 5.1.7
    S. Lehtola, C. Steigemann, M. J. Oliveira, and M. A. Marques, SoftwareX 7, 1 (2018)
XC functionals = LDA_X,LDA_C_PZ
    P. A. M. Dirac, Math. Proc. Cambridge Philos. Soc. 26, 376 (1930)
    F. Bloch, Z. Phys. 57, 545 (1929)
    J. P. Perdew and A. Zunger, Phys. Rev. B 23, 5048 (1981)
radial grids: 
    Treutler-Ahlrichs [JCP 102, 346 (1995); DOI:10.1063/1.469408] (M4) radial grids
    
becke partition: Becke, JCP 88, 2547 (1988); DOI:10.1063/1.454033
pruning grids: <function nwchem_prune at 0x14fe8ded87b8>
grids dens level: 3
symmetrized grids: False
atomic radii adjust function: <function treutler_atomic_radii_adjust at 0x14fe8ded86a8>
small_rho_cutoff = 1e-07
Set gradient conv threshold to 3.16228e-05
atom S rad-grids = 80, ang-grids = [ 50  50  50  50  50  50  50  50  50  50  50  50  50  50  50  50  50  50
  50  50  50  50  50  50  86  86  86  86  86  86  86  86  86  86  86  86
  86 350 350 350 350 350 350 350 350 350 434 434 434 434 434 434 434 434
 434 434 434 434 434 434 434 434 434 434 350 350 350 350 350 350 350 350
 350 350 350 350 350 350 350 350]
atom H rad-grids = 50, ang-grids = [ 50  50  50  50  50  50  50  50  50  50  50  50  50  50  86  86  86  86
 266 266 266 266 302 302 302 302 302 302 302 302 302 302 302 302 302 266
 266 266 266 266 266 266 266 266 266 266 266 266 266 266]
tot grids = 38928
Drop grids 2598
    CPU time for setting up grids     43.49 sec, wall time      0.36 sec
nelec by numeric integration = 7.999891152775907
    CPU time for vxc     41.89 sec, wall time      0.33 sec
Even tempered Gaussians are generated as DF auxbasis for  H S
  ETB auxbasis for H  [[0, [32.28416, 1]], [0, [16.14208, 1]], [0, [8.07104, 1]], [0, [4.03552, 1]], [0, [2.01776, 1]], [0, [1.00888, 1]], [0, [0.50444, 1]], [0, [0.25222, 1]], [0, [0.12611, 1]], [1, [8.571507550502421, 1]], [1, [4.2857537752512105, 1]], [1, [2.1428768876256052, 1]], [1, [1.0714384438128026, 1]], [1, [0.5357192219064013, 1]], [1, [0.26785961095320066, 1]], [2, [4.551504, 1]], [2, [2.275752, 1]], [2, [1.137876, 1]], [2, [0.568938, 1]]]
  ETB auxbasis for S  [[0, [19.383808, 1]], [0, [9.691904, 1]], [0, [4.845952, 1]], [0, [2.422976, 1]], [0, [1.211488, 1]], [0, [0.605744, 1]], [0, [0.302872, 1]], [0, [0.151436, 1]], [1, [15.705532909913755, 1]], [1, [7.852766454956877, 1]], [1, [3.9263832274784387, 1]], [1, [1.9631916137392194, 1]], [1, [0.9815958068696097, 1]], [1, [0.49079790343480484, 1]], [1, [0.24539895171740242, 1]], [1, [0.12269947585870121, 1]], [2, [12.725248, 1]], [2, [6.362624, 1]], [2, [3.181312, 1]], [2, [1.590656, 1]], [2, [0.795328, 1]], [2, [0.397664, 1]], [2, [0.198832, 1]], [2, [0.099416, 1]], [3, [6.751975124276451, 1]], [3, [3.3759875621382256, 1]], [3, [1.6879937810691128, 1]], [3, [0.8439968905345564, 1]], [3, [0.4219984452672782, 1]], [3, [0.2109992226336391, 1]], [4, [3.582576, 1]], [4, [1.791288, 1]], [4, [0.895644, 1]], [4, [0.447822, 1]]]
num shells = 72, num cGTOs = 244
    CPU time for df-vj     31.70 sec, wall time      0.25 sec
E1 = -26.972801890691873  Ecoul = 13.614882734581153  Exc = -2.7906504567105053
init E= -11.1190417746121
cond(S) = 13519.268785918184
    CPU time for initialize scf    236.43 sec, wall time      2.07 sec
  HOMO = -0.273402684708511  LUMO = -0.0308214967111368
  mo_energy =
[-0.72600141 -0.42731785 -0.36416571 -0.27340268 -0.0308215  -0.02381323
  0.09564143  0.11233221  0.1577332   0.18603163  0.19160383  0.21198337
  0.26588377  0.31880692  0.34196151  0.45265957  0.4685403   0.57101503
  0.58804682  0.60671996  0.61687277  0.8608796   0.87572948  0.90215798
  0.92648192  0.9332061   0.97916179  1.02195075  1.02431113  1.09945047
  1.14837424  1.18588324  1.19401144  1.19864353  1.22877279  1.37255248
  1.4235459   1.77266789  1.89423272  1.91582809  1.98216015  2.00541803
  2.0522964   2.10987567  2.15280541  2.23199688  2.2505631   2.27888207
  2.30871686  2.51853384  2.56103822  2.56567812  2.61034312  2.69967768
  2.73358467  2.85192602  2.85778025  3.00374587  3.08395298  3.09131322
  3.15861299  3.17123701  3.18802242  3.20158094  3.21343708  3.28258278
  3.32730246  3.47378548  3.48692356  3.50200129  3.62539079  3.66848792
  4.12163997  4.23296634  4.25506162  4.27557432  4.45694497  4.47723814
  5.79491705  5.81134259  5.82540702  5.85137348  6.11443088  6.20469338
  6.44636545  6.49876922  6.50837829  6.61514809  6.73714297  6.74984646
  6.81317504  6.93259009  7.05303728  7.07953271  7.75176392  7.8150726
  7.87356757  7.92444911  8.07204607  8.13678364  8.15299421  8.27769746
  8.40731552  8.46438944  8.53707727  8.54317962  8.58396418  8.64696782
  8.71380458  8.85148905  8.89072468 10.34211045 10.82732825 14.9626598 ]
nelec by numeric integration = 8.000000021188292
    CPU time for vxc     41.84 sec, wall time      0.33 sec
    CPU time for df-vj      2.56 sec, wall time      0.02 sec
E1 = -27.596942371337676  Ecoul = 14.162397289914873  Exc = -2.8873107172078676
cycle= 1 E= -11.2923279604216  delta_E= -0.173  |g|= 0.162  |ddm|= 2.47
    CPU time for cycle= 1     79.09 sec, wall time      0.62 sec
  HOMO = -0.194278410825854  LUMO = -0.00366144179941321
  mo_energy =
[-6.51305403e-01 -3.83512162e-01 -3.02017872e-01 -1.94278411e-01
 -3.66144180e-03  2.19220215e-03  1.09677649e-01  1.43105262e-01
  1.98166524e-01  2.34628923e-01  2.46173474e-01  2.51662829e-01
  3.13300862e-01  3.44755915e-01  3.77751496e-01  4.84877666e-01
  4.96700779e-01  5.90463135e-01  5.97584969e-01  6.34543366e-01
  6.39342029e-01  8.88634742e-01  9.11515940e-01  9.31308055e-01
  9.52471560e-01  9.80268668e-01  1.04035786e+00  1.09606217e+00
  1.09613004e+00  1.13522742e+00  1.21733899e+00  1.24057795e+00
  1.24794850e+00  1.25381310e+00  1.27951302e+00  1.41226643e+00
  1.46024486e+00  1.85745523e+00  1.91455682e+00  1.93065285e+00
  1.99677371e+00  2.07464796e+00  2.07708330e+00  2.13168526e+00
  2.17268084e+00  2.24212686e+00  2.26726151e+00  2.31237499e+00
  2.34358879e+00  2.55261147e+00  2.58442740e+00  2.61088115e+00
  2.63927022e+00  2.75661853e+00  2.75795901e+00  2.89344609e+00
  2.90479288e+00  3.08865225e+00  3.15002268e+00  3.17293796e+00
  3.23477461e+00  3.26293515e+00  3.26637968e+00  3.27448467e+00
  3.29575940e+00  3.36413753e+00  3.39816343e+00  3.56403085e+00
  3.57751802e+00  3.58767743e+00  3.69120485e+00  3.73029459e+00
  4.17513770e+00  4.30916501e+00  4.33005086e+00  4.34558333e+00
  4.51624985e+00  4.52893197e+00  5.80318305e+00  5.82077085e+00
  5.83287256e+00  5.86020462e+00  6.13809140e+00  6.22332424e+00
  6.47722389e+00  6.52298366e+00  6.55095146e+00  6.64580899e+00
  6.75843653e+00  6.78792867e+00  6.83661394e+00  6.96413209e+00
  7.06927242e+00  7.10028598e+00  7.75505677e+00  7.81769309e+00
  7.87508678e+00  7.92731073e+00  8.08020770e+00  8.13544222e+00
  8.15779953e+00  8.28764454e+00  8.45426446e+00  8.47977611e+00
  8.56018513e+00  8.60191141e+00  8.64010085e+00  8.72727527e+00
  8.72964079e+00  8.87047898e+00  8.91881834e+00  1.04030977e+01
  1.08918384e+01  1.50938363e+01]
nelec by numeric integration = 8.000000029693659
    CPU time for vxc     40.05 sec, wall time      0.31 sec
    CPU time for df-vj      1.54 sec, wall time      0.01 sec
E1 = -27.130054310223723  Ecoul = 13.601602719233961  Exc = -2.7906389334054547
cycle= 2 E= -11.2895626861861  delta_E= 0.00277  |g|= 0.187  |ddm|= 1.17
    CPU time for cycle= 2     93.96 sec, wall time      0.74 sec
  HOMO = -0.230001097512787  LUMO = -0.0168415670552693
  mo_energy =
[-6.86646118e-01 -4.03486100e-01 -3.34418766e-01 -2.30001098e-01
 -1.68415671e-02 -1.27850558e-02  1.03929308e-01  1.31101120e-01
  1.78285816e-01  2.12368240e-01  2.22071752e-01  2.30593788e-01
  2.90549088e-01  3.30484957e-01  3.61426027e-01  4.68016419e-01
  4.81804321e-01  5.81546053e-01  5.93028679e-01  6.20260723e-01
  6.29906091e-01  8.76617227e-01  8.97326670e-01  9.18821103e-01
  9.37549275e-01  9.58711126e-01  1.01088718e+00  1.06015022e+00
  1.06103946e+00  1.11578411e+00  1.18185217e+00  1.21078343e+00
  1.22316107e+00  1.22538162e+00  1.25421582e+00  1.39136190e+00
  1.44356079e+00  1.81557584e+00  1.90659604e+00  1.92596734e+00
  1.99264394e+00  2.03633616e+00  2.06500645e+00  2.12436838e+00
  2.16657574e+00  2.23864522e+00  2.25881471e+00  2.29637784e+00
  2.32476009e+00  2.53344751e+00  2.57409120e+00  2.58855137e+00
  2.62681709e+00  2.72976846e+00  2.74560209e+00  2.87223906e+00
  2.88094400e+00  3.04770290e+00  3.11670934e+00  3.13324178e+00
  3.19318710e+00  3.21623176e+00  3.22697422e+00  3.23696023e+00
  3.25122560e+00  3.32260978e+00  3.36261009e+00  3.51898775e+00
  3.53219765e+00  3.54322551e+00  3.65517053e+00  3.69750132e+00
  4.14551992e+00  4.26916145e+00  4.29025064e+00  4.30734840e+00
  4.48503350e+00  4.50250526e+00  5.80192364e+00  5.81970494e+00
  5.83222470e+00  5.85890654e+00  6.12988136e+00  6.21636794e+00
  6.46584534e+00  6.51485169e+00  6.53282259e+00  6.63238715e+00
  6.75112021e+00  6.77350536e+00  6.82782198e+00  6.95350892e+00
  7.06396910e+00  7.09345626e+00  7.75789973e+00  7.82088692e+00
  7.87837990e+00  7.92998436e+00  8.07996728e+00  8.13908920e+00
  8.15961401e+00  8.28475302e+00  8.43427002e+00  8.47720676e+00
  8.55684470e+00  8.56749871e+00  8.60872248e+00  8.68304603e+00
  8.72568905e+00  8.86573271e+00  8.90892868e+00  1.03724009e+01
  1.08598753e+01  1.50230203e+01]
nelec by numeric integration = 8.00000002641503
    CPU time for vxc     39.12 sec, wall time      0.31 sec
    CPU time for df-vj      3.07 sec, wall time      0.02 sec
E1 = -27.384425496941763  Ecoul = 13.893502636200813  Exc = -2.8400186667377447
cycle= 3 E= -11.3014136892696  delta_E= -0.0119  |g|= 0.0186  |ddm|= 0.644
    CPU time for cycle= 3     99.36 sec, wall time      0.78 sec
  HOMO = -0.230419596409152  LUMO = -0.0163830678208895
  mo_energy =
[-6.87908632e-01 -4.04834565e-01 -3.33472474e-01 -2.30419596e-01
 -1.63830678e-02 -1.38604212e-02  1.03344731e-01  1.29900872e-01
  1.78222017e-01  2.12020963e-01  2.21733305e-01  2.31565154e-01
  2.90263659e-01  3.30908069e-01  3.60656304e-01  4.68141750e-01
  4.81485811e-01  5.80670361e-01  5.91754044e-01  6.19753796e-01
  6.28765535e-01  8.75448163e-01  8.96326169e-01  9.17576404e-01
  9.37816791e-01  9.58623700e-01  1.01062814e+00  1.06010820e+00
  1.06074790e+00  1.11634853e+00  1.18193158e+00  1.21090103e+00
  1.22345041e+00  1.22563942e+00  1.25455659e+00  1.39129251e+00
  1.44276083e+00  1.81511895e+00  1.90509780e+00  1.92363454e+00
  1.98999643e+00  2.03840451e+00  2.06386452e+00  2.12245042e+00
  2.16432654e+00  2.23683818e+00  2.25784228e+00  2.29454605e+00
  2.32400082e+00  2.53319891e+00  2.57246989e+00  2.58738580e+00
  2.62513899e+00  2.72825228e+00  2.74426450e+00  2.87162573e+00
  2.88042277e+00  3.04656805e+00  3.11702704e+00  3.13277576e+00
  3.19379181e+00  3.21714896e+00  3.22677534e+00  3.23764662e+00
  3.25238431e+00  3.32315427e+00  3.36338188e+00  3.51892092e+00
  3.53251756e+00  3.54384916e+00  3.65496970e+00  3.69718019e+00
  4.14573119e+00  4.26874212e+00  4.29003483e+00  4.30701218e+00
  4.48449800e+00  4.50153873e+00  5.79936045e+00  5.81670378e+00
  5.82949766e+00  5.85623146e+00  6.12693114e+00  6.21415992e+00
  6.46325866e+00  6.51193867e+00  6.53024575e+00  6.62996561e+00
  6.74871548e+00  6.77096021e+00  6.82567667e+00  6.95064121e+00
  7.06137615e+00  7.09056102e+00  7.75482337e+00  7.81778000e+00
  7.87545540e+00  7.92691560e+00  8.07718217e+00  8.13595390e+00
  8.15653998e+00  8.28266749e+00  8.43246445e+00  8.47429470e+00
  8.55403031e+00  8.56700223e+00  8.60781173e+00  8.68195183e+00
  8.72286846e+00  8.86250496e+00  8.90607772e+00  1.03711540e+01
  1.08582514e+01  1.50234091e+01]
nelec by numeric integration = 8.000000026614366
    CPU time for vxc     37.15 sec, wall time      0.29 sec
    CPU time for df-vj      8.12 sec, wall time      0.06 sec
E1 = -27.38434613083306  Ecoul = 13.893479934948795  Exc = -2.8402046152007445
cycle= 4 E= -11.3015429728759  delta_E= -0.000129  |g|= 0.00351  |ddm|= 0.0298
    CPU time for cycle= 4     97.97 sec, wall time      0.77 sec
  HOMO = -0.230217741830081  LUMO = -0.0160952834223881
  mo_energy =
[-6.87184946e-01 -4.04084672e-01 -3.33251252e-01 -2.30217742e-01
 -1.60952834e-02 -1.35528424e-02  1.03562241e-01  1.30224367e-01
  1.78522290e-01  2.12320089e-01  2.21894374e-01  2.31533956e-01
  2.90308880e-01  3.31059160e-01  3.60901840e-01  4.68291277e-01
  4.81782661e-01  5.80910920e-01  5.92171846e-01  6.19998725e-01
  6.28993386e-01  8.75829095e-01  8.96640524e-01  9.17960931e-01
  9.38012973e-01  9.58842480e-01  1.01098700e+00  1.06049004e+00
  1.06099109e+00  1.11656225e+00  1.18220723e+00  1.21129119e+00
  1.22363249e+00  1.22566550e+00  1.25467521e+00  1.39161469e+00
  1.44310642e+00  1.81546898e+00  1.90555554e+00  1.92428183e+00
  1.99074805e+00  2.03854121e+00  2.06431484e+00  2.12300942e+00
  2.16487765e+00  2.23738033e+00  2.25835326e+00  2.29514885e+00
  2.32452242e+00  2.53362605e+00  2.57293169e+00  2.58793477e+00
  2.62558119e+00  2.72885422e+00  2.74478596e+00  2.87205472e+00
  2.88086487e+00  3.04721325e+00  3.11738846e+00  3.13324271e+00
  3.19427674e+00  3.21728737e+00  3.22722778e+00  3.23787353e+00
  3.25267079e+00  3.32345781e+00  3.36351804e+00  3.51931759e+00
  3.53278488e+00  3.54417208e+00  3.65552669e+00  3.69769536e+00
  4.14625048e+00  4.26929761e+00  4.29059985e+00  4.30769136e+00
  4.48515625e+00  4.50222735e+00  5.80011797e+00  5.81751784e+00
  5.83027732e+00  5.85699228e+00  6.12780729e+00  6.21490062e+00
  6.46405914e+00  6.51277066e+00  6.53115011e+00  6.63084552e+00
  6.74947358e+00  6.77177712e+00  6.82645353e+00  6.95148488e+00
  7.06217119e+00  7.09144333e+00  7.75564157e+00  7.81860927e+00
  7.87624390e+00  7.92774887e+00  8.07792585e+00  8.13676447e+00
  8.15731568e+00  8.28340075e+00  8.43320495e+00  8.47508015e+00
  8.55487878e+00  8.56771207e+00  8.60859756e+00  8.68270835e+00
  8.72370374e+00  8.86338119e+00  8.90696512e+00  1.03719743e+01
  1.08591709e+01  1.50243392e+01]
nelec by numeric integration = 8.000000026623235
    CPU time for vxc     32.08 sec, wall time      0.26 sec
    CPU time for df-vj      7.06 sec, wall time      0.05 sec
E1 = -27.381216472127754  Ecoul = 13.889633418985545  Exc = -2.8394923825589857
cycle= 5 E= -11.3015475974921  delta_E= -4.62e-06  |g|= 0.000221  |ddm|= 0.0091
    CPU time for cycle= 5    129.57 sec, wall time      1.03 sec
  HOMO = -0.23024158280543  LUMO = -0.0161451956066517
  mo_energy =
[-6.87248655e-01 -4.04171022e-01 -3.33288053e-01 -2.30241583e-01
 -1.61451956e-02 -1.35999650e-02  1.03521282e-01  1.30179112e-01
  1.78483283e-01  2.12278531e-01  2.21868516e-01  2.31513440e-01
  2.90286458e-01  3.31027082e-01  3.60863912e-01  4.68256761e-01
  4.81731149e-01  5.80863762e-01  5.92108221e-01  6.19957785e-01
  6.28947509e-01  8.75767430e-01  8.96594416e-01  9.17915593e-01
  9.37970728e-01  9.58812028e-01  1.01094937e+00  1.06044760e+00
  1.06096242e+00  1.11651964e+00  1.18217098e+00  1.21124131e+00
  1.22359980e+00  1.22564617e+00  1.25464594e+00  1.39157025e+00
  1.44305490e+00  1.81543800e+00  1.90549325e+00  1.92421461e+00
  1.99067189e+00  2.03851323e+00  2.06424940e+00  2.12293460e+00
  2.16481281e+00  2.23730919e+00  2.25828203e+00  2.29507655e+00
  2.32445518e+00  2.53356654e+00  2.57286365e+00  2.58787499e+00
  2.62551814e+00  2.72879745e+00  2.74471473e+00  2.87199356e+00
  2.88080539e+00  3.04716387e+00  3.11734433e+00  3.13319956e+00
  3.19422617e+00  3.21726437e+00  3.22718435e+00  3.23784224e+00
  3.25263390e+00  3.32342167e+00  3.36348986e+00  3.51928103e+00
  3.53275577e+00  3.54413643e+00  3.65546601e+00  3.69763578e+00
  4.14618730e+00  4.26924655e+00  4.29054645e+00  4.30763228e+00
  4.48508438e+00  4.50215220e+00  5.80003142e+00  5.81743371e+00
  5.83019191e+00  5.85690790e+00  6.12771481e+00  6.21480971e+00
  6.46396558e+00  6.51268320e+00  6.53105181e+00  6.63074862e+00
  6.74937620e+00  6.77168143e+00  6.82635509e+00  6.95138551e+00
  7.06206981e+00  7.09134107e+00  7.75553987e+00  7.81850777e+00
  7.87614257e+00  7.92764716e+00  8.07782515e+00  8.13665916e+00
  8.15720968e+00  8.28329608e+00  8.43312239e+00  8.47497572e+00
  8.55478037e+00  8.56764229e+00  8.60851555e+00  8.68264395e+00
  8.72360306e+00  8.86327145e+00  8.90685270e+00  1.03718902e+01
  1.08590807e+01  1.50243002e+01]
nelec by numeric integration = 8.000000026607339
    CPU time for vxc     33.82 sec, wall time      0.27 sec
    CPU time for df-vj      8.49 sec, wall time      0.06 sec
E1 = -27.381288322775113  Ecoul = 13.889736608258987  Exc = -2.8395237400269773
cycle= 6 E= -11.301547616334  delta_E= -1.88e-08  |g|= 1.6e-05  |ddm|= 0.000597
    CPU time for cycle= 6     82.40 sec, wall time      0.66 sec
  HOMO = -0.230238952197009  LUMO = -0.0161435972303231
  mo_energy =
[-6.87244545e-01 -4.04165917e-01 -3.33285907e-01 -2.30238952e-01
 -1.61435972e-02 -1.35990757e-02  1.03522272e-01  1.30181251e-01
  1.78484510e-01  2.12280844e-01  2.21869812e-01  2.31513609e-01
  2.90287248e-01  3.31028023e-01  3.60865386e-01  4.68257725e-01
  4.81731994e-01  5.80864515e-01  5.92109944e-01  6.19958020e-01
  6.28948284e-01  8.75769585e-01  8.96596716e-01  9.17916837e-01
  9.37971339e-01  9.58813468e-01  1.01095103e+00  1.06045041e+00
  1.06096454e+00  1.11652098e+00  1.18217369e+00  1.21124313e+00
  1.22360132e+00  1.22564731e+00  1.25464706e+00  1.39157182e+00
  1.44305762e+00  1.81544133e+00  1.90549599e+00  1.92421716e+00
  1.99067532e+00  2.03851552e+00  2.06425265e+00  2.12293903e+00
  2.16481579e+00  2.23731228e+00  2.25828492e+00  2.29507944e+00
  2.32445804e+00  2.53356857e+00  2.57286582e+00  2.58787745e+00
  2.62552029e+00  2.72880014e+00  2.74471750e+00  2.87199595e+00
  2.88080799e+00  3.04716690e+00  3.11734692e+00  3.13320250e+00
  3.19422923e+00  3.21726730e+00  3.22718730e+00  3.23784435e+00
  3.25263630e+00  3.32342435e+00  3.36349201e+00  3.51928467e+00
  3.53275888e+00  3.54413948e+00  3.65546955e+00  3.69763886e+00
  4.14618957e+00  4.26925000e+00  4.29055015e+00  4.30763581e+00
  4.48508936e+00  4.50215738e+00  5.80003628e+00  5.81743830e+00
  5.83019662e+00  5.85691268e+00  6.12771954e+00  6.21481440e+00
  6.46397073e+00  6.51268782e+00  6.53105753e+00  6.63075396e+00
  6.74938295e+00  6.77168756e+00  6.82636164e+00  6.95139171e+00
  7.06207612e+00  7.09134696e+00  7.75554691e+00  7.81851473e+00
  7.87614949e+00  7.92765387e+00  8.07783231e+00  8.13666548e+00
  8.15721679e+00  8.28330362e+00  8.43312890e+00  8.47498263e+00
  8.55478634e+00  8.56764856e+00  8.60852278e+00  8.68264988e+00
  8.72360953e+00  8.86327812e+00  8.90686016e+00  1.03718973e+01
  1.08590881e+01  1.50243073e+01]
nelec by numeric integration = 8.000000026609811
    CPU time for vxc     37.34 sec, wall time      0.29 sec
    CPU time for df-vj      8.03 sec, wall time      0.06 sec
E1 = -27.38126930446479  Ecoul = 13.889711495567523  Exc = -2.8395176457362714
cycle= 7 E= -11.3015476164244  delta_E= -9.04e-11  |g|= 2.9e-06  |ddm|= 8.26e-05
    CPU time for cycle= 7    102.19 sec, wall time      0.80 sec
  HOMO = -0.230240457608687  LUMO = -0.0161446614203805
  mo_energy =
[-6.87246461e-01 -4.04167656e-01 -3.33287191e-01 -2.30240458e-01
 -1.61446614e-02 -1.35999276e-02  1.03521659e-01  1.30180191e-01
  1.78483535e-01  2.12279637e-01  2.21868737e-01  2.31512998e-01
  2.90286337e-01  3.31027367e-01  3.60864443e-01  4.68256878e-01
  4.81731033e-01  5.80863625e-01  5.92108985e-01  6.19957154e-01
  6.28947370e-01  8.75768404e-01  8.96595627e-01  9.17915838e-01
  9.37970518e-01  9.58812479e-01  1.01094979e+00  1.06044889e+00
  1.06096315e+00  1.11652005e+00  1.18217219e+00  1.21124180e+00
  1.22360027e+00  1.22564625e+00  1.25464602e+00  1.39157075e+00
  1.44305646e+00  1.81543958e+00  1.90549481e+00  1.92421590e+00
  1.99067391e+00  2.03851421e+00  2.06425144e+00  2.12293764e+00
  2.16481449e+00  2.23731106e+00  2.25828374e+00  2.29507797e+00
  2.32445664e+00  2.53356729e+00  2.57286454e+00  2.58787599e+00
  2.62551899e+00  2.72879854e+00  2.74471619e+00  2.87199457e+00
  2.88080654e+00  3.04716504e+00  3.11734545e+00  3.13320079e+00
  3.19422750e+00  3.21726564e+00  3.22718564e+00  3.23784293e+00
  3.25263471e+00  3.32342279e+00  3.36349065e+00  3.51928286e+00
  3.53275720e+00  3.54413781e+00  3.65546783e+00  3.69763724e+00
  4.14618814e+00  4.26924817e+00  4.29054831e+00  4.30763398e+00
  4.48508751e+00  4.50215554e+00  5.80003480e+00  5.81743680e+00
  5.83019514e+00  5.85691121e+00  6.12771782e+00  6.21481283e+00
  6.46396900e+00  6.51268615e+00  6.53105559e+00  6.63075215e+00
  6.74938119e+00  6.77168568e+00  6.82635988e+00  6.95138986e+00
  7.06207440e+00  7.09134518e+00  7.75554524e+00  7.81851306e+00
  7.87614786e+00  7.92765220e+00  8.07783059e+00  8.13666384e+00
  8.15721509e+00  8.28330192e+00  8.43312692e+00  8.47498085e+00
  8.55478457e+00  8.56764654e+00  8.60852072e+00  8.68264767e+00
  8.72360775e+00  8.86327627e+00  8.90685820e+00  1.03718952e+01
  1.08590859e+01  1.50243047e+01]
nelec by numeric integration = 8.000000026609522
    CPU time for vxc     38.35 sec, wall time      0.30 sec
    CPU time for df-vj      9.56 sec, wall time      0.07 sec
E1 = -27.381277433188735  Ecoul = 13.889721604847432  Exc = -2.8395196262929354
Extra cycle  E= -11.3015476164251  delta_E= -7e-13  |g|= 2.62e-06  |ddm|= 2.56e-05
    CPU time for scf_cycle   1026.60 sec, wall time      8.31 sec
    CPU time for SCF   1026.62 sec, wall time      8.32 sec
converged SCF energy = -11.3015476164251
