#INFO: **** input file is /home/nkousuke/lustre/toBeSync/turboRVB/05turbo-genius-development/turbogenius_paper/04data/sanity_checks/03pyscf_HF_turbo_VMC_via_trexio/00open_boundary/results/ClF/pyscf-HF-workflow/run.py ****

from pyscf_wrapper import Pyscf_wrapper

# input variables
pyscf_chkfile="pyscf.chk"
structure_file="ClF.xyz"

# input variables
omp_num_threads=128
charge=0
spin=0
basis="ccecp-ccpvqz"
ecp="ccecp"
scf_method="HF"
dft_xc="NA"
solver_newton=False
MP2_flag=False
CCSD_flag=False
pyscf_output="out.pyscf"
twist_average=False
exp_to_discard=0.0
kpt=[0.0, 0.0, 0.0]
kpt_grid=[1, 1, 1]
smearing_method="fermi"
smearing_sigma=0.0

pyscf_calc=Pyscf_wrapper(
                        structure_file=structure_file,
                        chkfile=pyscf_chkfile,
                        )

pyscf_calc.run_pyscf(
                  omp_num_threads=omp_num_threads,
                  charge=charge,
                  spin=spin,
                  basis=basis,
                  ecp=ecp,
                  scf_method=scf_method,
                  dft_xc=dft_xc,
                  solver_newton=solver_newton,
                  MP2_flag=MP2_flag,
                  CCSD_flag=CCSD_flag,
                  pyscf_output=pyscf_output,
                  twist_average=twist_average,
                  exp_to_discard=exp_to_discard,
                  kpt=kpt,
                  kpt_grid=kpt_grid,
                  smearing_method=smearing_method,
                  smearing_sigma=smearing_sigma
                  )
                #INFO: ******************** input file end ********************


System: uname_result(system='Linux', node='spcc-238', release='5.4.0-66-generic', version='#74-Ubuntu SMP Wed Jan 27 22:54:38 UTC 2021', machine='x86_64', processor='x86_64')  Threads 128
Python 3.7.3 (default, Mar 27 2019, 22:11:17) 
[GCC 7.3.0]
numpy 1.20.1  scipy 1.7.3
Date: Mon Dec 19 18:11:19 2022
PySCF version 2.0.1
PySCF path  /home/nkousuke/application/anaconda3/lib/python3.7/site-packages/pyscf

[CONFIG] conf_file /home/nkousuke/.pyscf_conf.py
[INPUT] verbose = 5
[INPUT] max_memory = 506318.96875 
[INPUT] num. atoms = 2
[INPUT] num. electrons = 14
[INPUT] charge = 0
[INPUT] spin (= nelec alpha-beta = 2S) = 0
[INPUT] symmetry False subgroup None
[INPUT] Mole.unit = A
[INPUT]  1 F      0.000000000000   0.000000000000  -1.064500000000 AA    0.000000000000   0.000000000000  -2.011613459600 Bohr
[INPUT]  2 Cl     0.000000000000   0.000000000000   0.563500000000 AA    0.000000000000   0.000000000000   1.064860671192 Bohr
[INPUT] ---------------- BASIS SET ---------------- 
[INPUT] l, kappa, [nprim/nctr], expnt,             c_1 c_2 ...
[INPUT] Cl
[INPUT] 0    0    [10   /1   ]  15.583847         0.002501
                                8.858485          -0.010046
                                5.035519          0.08581
                                2.862391          -0.290136
                                1.627098          -0.140314
                                0.924908          0.146839
                                0.525755          0.392484
                                0.29886           0.425061
                                0.169884          0.227195
                                0.096569          0.059828
[INPUT] 0    0    [1    /1   ]  1.038268             1
[INPUT] 0    0    [1    /1   ]  0.418863             1
[INPUT] 0    0    [1    /1   ]  0.16898              1
[INPUT] 1    0    [10   /1   ]  7.682894          -0.004609
                                4.507558          -0.001798
                                2.644587          -0.068614
                                1.551581          0.062352
                                0.910313          0.166337
                                0.534081          0.282292
                                0.313346          0.275967
                                0.18384           0.241328
                                0.107859          0.110223
                                0.063281          0.040289
[INPUT] 1    0    [1    /1   ]  2.626653             1
[INPUT] 1    0    [1    /1   ]  1.069041             1
[INPUT] 1    0    [1    /1   ]  0.435097             1
[INPUT] 2    0    [1    /1   ]  2.102692             1
[INPUT] 2    0    [1    /1   ]  0.763188             1
[INPUT] 2    0    [1    /1   ]  0.277005             1
[INPUT] 3    0    [1    /1   ]  1.139446             1
[INPUT] 3    0    [1    /1   ]  0.434852             1
[INPUT] 4    0    [1    /1   ]  0.844301             1
[INPUT] F
[INPUT] 0    0    [10   /1   ]  84.048652         -2.8e-06
                                41.094617         -0.0003543
                                20.092738         0.0184088
                                9.824112          -0.1277661
                                4.803386          -0.0702872
                                2.34856           0.1571604
                                1.148301          0.3769012
                                0.561449          0.4095165
                                0.274514          0.1970893
                                0.13422           0.0243482
[INPUT] 0    0    [1    /1   ]  1.705653             1
[INPUT] 0    0    [1    /1   ]  1.048013             1
[INPUT] 0    0    [1    /1   ]  0.294345             1
[INPUT] 1    0    [10   /1   ]  31.642619         0.0029673
                                16.243233         0.0298049
                                8.338204          0.0669489
                                4.280284          0.133779
                                2.197215          0.2148312
                                1.127906          0.2664862
                                0.578992          0.2618954
                                0.297216          0.1920217
                                0.152571          0.0828465
                                0.07832           0.0133046
[INPUT] 1    0    [1    /1   ]  1.650688             1
[INPUT] 1    0    [1    /1   ]  0.64724              1
[INPUT] 1    0    [1    /1   ]  0.205806             1
[INPUT] 2    0    [1    /1   ]  4.998085             1
[INPUT] 2    0    [1    /1   ]  1.724392             1
[INPUT] 2    0    [1    /1   ]  0.587354             1
[INPUT] 3    0    [1    /1   ]  3.694285             1
[INPUT] 3    0    [1    /1   ]  1.178147             1
[INPUT] 4    0    [1    /1   ]  2.406583             1

nuclear repulsion = 15.9273239158968
number of shells = 28
number of NR pGTOs = 180
number of NR cGTOs = 108
basis = ccecp-ccpvqz
ecp = ccecp
CPU time:         6.17


******** <class 'pyscf.scf.hf.RHF'> ********
method = RHF
initial guess = minao
damping factor = 0
level_shift factor = 0
DIIS = <class 'pyscf.scf.diis.CDIIS'>
diis_start_cycle = 1
diis_space = 8
SCF conv_tol = 1e-09
SCF conv_tol_grad = None
SCF max_cycles = 200
direct_scf = True
direct_scf_tol = 1e-13
chkfile to save SCF result = pyscf.chk
max_memory 506318 MB (current use 107 MB)
Set gradient conv threshold to 3.16228e-05
E1 = -97.24070224119549  E_coul = 42.73329664957572
init E= -38.580081675723
cond(S) = 2002.1045264037482
    CPU time for initialize scf     93.92 sec, wall time      0.95 sec
  HOMO = -0.38654949759027  LUMO = -0.135581813950386
  mo_energy =
[-1.79686529 -1.11323974 -0.72881438 -0.68950682 -0.68950682 -0.3865495
 -0.3865495  -0.13558181  0.40621628  0.51406579  0.52235276  0.52235276
  0.53898718  0.53898718  0.56680536  0.56680536  0.59854234  0.72609628
  0.72609628  0.85275965  1.40070037  1.40070037  1.40294518  1.52285885
  1.52285885  1.56356598  1.56356598  1.64031963  1.67148842  1.67148842
  1.74480406  1.74480406  1.82931233  1.82931233  1.83861593  2.26417962
  2.26417962  2.29241039  2.72144256  2.72144256  2.86154013  2.93692141
  3.05499009  3.05499009  3.84725319  3.84725319  3.87643968  3.93883906
  3.93883906  3.94279378  3.94279378  3.96701912  3.96701912  4.21754776
  4.37379884  4.37379884  4.38863833  4.38863833  4.57951228  4.6078664
  4.6078664   4.61476244  4.61476244  4.88421964  4.91936498  4.91936498
  4.99800265  4.99800265  5.06830253  5.06830253  5.41110722  5.41110722
  5.445099    5.445099    5.67067928  6.14134606  6.14134606  6.48619767
  7.10990341 10.63068335 10.63068335 11.28722185 11.33834519 11.33834519
 11.98874853 12.00531349 12.00531349 12.011792   12.011792   12.04306049
 12.04306049 12.1743132  12.1743132  12.47826841 15.59753729 15.59753729
 15.67921601 15.67921601 15.88417776 15.88417776 16.17416306 16.17639583
 16.17639583 16.5184459  16.5184459  16.70453562 17.55865871 33.74369913]
E1 = -97.16046674450934  E_coul = 42.60622097672583
cycle= 1 E= -38.6269218518867  delta_E= -0.0468  |g|= 0.348  |ddm|= 2.23
    CPU time for cycle= 1     41.52 sec, wall time      0.34 sec
  HOMO = -0.519602510519894  LUMO = 0.0282186202926924
  mo_energy =
[-1.65411937e+00 -1.14603162e+00 -7.18019727e-01 -7.18019727e-01
 -7.12921828e-01 -5.19602511e-01 -5.19602511e-01  2.82186203e-02
  4.31760416e-01  4.75899173e-01  4.75899173e-01  4.80191183e-01
  4.95697302e-01  4.95697302e-01  5.49986513e-01  5.49986513e-01
  5.80956253e-01  7.38687974e-01  7.38687974e-01  8.48738406e-01
  1.38438311e+00  1.38438311e+00  1.40503817e+00  1.47747518e+00
  1.47747518e+00  1.53446225e+00  1.53446225e+00  1.61369371e+00
  1.61369371e+00  1.61454105e+00  1.68285572e+00  1.68285572e+00
  1.81052385e+00  1.83451337e+00  1.83451337e+00  2.27568472e+00
  2.27568472e+00  2.29153662e+00  2.67161360e+00  2.67161360e+00
  2.81147438e+00  2.89080301e+00  3.09145664e+00  3.09145664e+00
  3.78859908e+00  3.78859908e+00  3.80166530e+00  3.87273305e+00
  3.87273305e+00  3.88370050e+00  3.88370050e+00  3.93043947e+00
  3.93043947e+00  4.19032609e+00  4.30528423e+00  4.30528423e+00
  4.31841564e+00  4.31841564e+00  4.52516180e+00  4.53051123e+00
  4.53051123e+00  4.66663949e+00  4.66663949e+00  4.80269880e+00
  4.92127373e+00  4.92127373e+00  4.93140562e+00  4.93140562e+00
  4.99788019e+00  4.99788019e+00  5.43964371e+00  5.43964371e+00
  5.49648357e+00  5.49648357e+00  5.72762947e+00  6.18132513e+00
  6.18132513e+00  6.56130523e+00  7.04837364e+00  1.07378182e+01
  1.07378182e+01  1.12373286e+01  1.12373286e+01  1.12951931e+01
  1.19315672e+01  1.20851359e+01  1.20851359e+01  1.21032523e+01
  1.21032523e+01  1.21149531e+01  1.21149531e+01  1.22153260e+01
  1.22153260e+01  1.25086223e+01  1.57231661e+01  1.57231661e+01
  1.57706622e+01  1.57706622e+01  1.59413935e+01  1.59413935e+01
  1.62157827e+01  1.63124449e+01  1.63124449e+01  1.66461292e+01
  1.66461292e+01  1.68224223e+01  1.74403804e+01  3.38818500e+01]
E1 = -97.26759540871109  E_coul = 42.691730955426145
cycle= 2 E= -38.6485405373881  delta_E= -0.0216  |g|= 0.14  |ddm|= 0.723
    CPU time for cycle= 2     54.98 sec, wall time      0.43 sec
  HOMO = -0.491040902720719  LUMO = 0.0531453802429751
  mo_energy =
[-1.67271524 -1.1140781  -0.73780737 -0.73780737 -0.70921346 -0.4910409
 -0.4910409   0.05314538  0.43303293  0.50399504  0.50954199  0.50954199
  0.52496321  0.52496321  0.56487539  0.56487539  0.59281113  0.7343712
  0.7343712   0.86440579  1.4001365   1.4001365   1.41327712  1.5019256
  1.5019256   1.56410369  1.56410369  1.62911205  1.66058532  1.66058532
  1.72447609  1.72447609  1.83056052  1.83941265  1.83941265  2.27581458
  2.27581458  2.29496577  2.71276038  2.71276038  2.84377474  2.9266039
  3.07558394  3.07558394  3.82534898  3.82534898  3.84167163  3.90978811
  3.90978811  3.92858003  3.92858003  3.97542659  3.97542659  4.21099528
  4.3630293   4.3630293   4.37571507  4.37571507  4.55752969  4.57948252
  4.57948252  4.65163099  4.65163099  4.84979572  4.93529431  4.93529431
  4.97640753  4.97640753  5.06065553  5.06065553  5.44556576  5.44556576
  5.4615506   5.4615506   5.70208857  6.16114696  6.16114696  6.52015666
  7.07814985 10.68182573 10.68182573 11.29400728 11.31745944 11.31745944
 11.9620268  12.05396245 12.05396245 12.07472151 12.07472151 12.08256242
 12.08256242 12.19233922 12.19233922 12.48829119 15.67240475 15.67240475
 15.72276521 15.72276521 15.90008632 15.90008632 16.17777883 16.24730419
 16.24730419 16.57389953 16.57389953 16.7506552  17.52615844 33.79462833]
E1 = -97.39323558733366  E_coul = 42.8142703584619
cycle= 3 E= -38.651641312975  delta_E= -0.0031  |g|= 0.0462  |ddm|= 0.198
    CPU time for cycle= 3     74.05 sec, wall time      0.58 sec
  HOMO = -0.491069143953396  LUMO = 0.0590428234689372
  mo_energy =
[-1.65452096 -1.1120424  -0.72133791 -0.72133791 -0.6986852  -0.49106914
 -0.49106914  0.05904282  0.4370771   0.50327726  0.50821144  0.50821144
  0.52513651  0.52513651  0.56593997  0.56593997  0.59403955  0.737411
  0.737411    0.86816364  1.40372842  1.40372842  1.41895575  1.50424347
  1.50424347  1.56288609  1.56288609  1.63131302  1.65869264  1.65869264
  1.72399271  1.72399271  1.83210313  1.84345538  1.84345538  2.28031047
  2.28031047  2.30043821  2.71234949  2.71234949  2.84582875  2.92921722
  3.08904408  3.08904408  3.82681525  3.82681525  3.84708458  3.91423802
  3.91423802  3.92719241  3.92719241  3.97350261  3.97350261  4.21783004
  4.36077349  4.36077349  4.3733102   4.3733102   4.55650106  4.57811058
  4.57811058  4.66340406  4.66340406  4.85271678  4.9461319   4.9461319
  4.97484081  4.97484081  5.05772113  5.05772113  5.45981758  5.45981758
  5.47997732  5.47997732  5.72203329  6.17338292  6.17338292  6.5380237
  7.08996846 10.71336457 10.71336457 11.3122592  11.3131171  11.3131171
 11.96804481 12.07471237 12.07471237 12.09578641 12.09578641 12.1029672
 12.1029672  12.21376502 12.21376502 12.51197966 15.70213849 15.70213849
 15.75291032 15.75291032 15.93179615 15.93179615 16.20979375 16.28134761
 16.28134761 16.6061614  16.6061614  16.78186023 17.52155595 33.84034781]
E1 = -97.30394709754468  E_coul = 42.72464507110758
cycle= 4 E= -38.6519781105403  delta_E= -0.000337  |g|= 0.0163  |ddm|= 0.0562
    CPU time for cycle= 4     57.27 sec, wall time      0.44 sec
  HOMO = -0.492133384565529  LUMO = 0.0582058959059666
  mo_energy =
[-1.66132611 -1.11299938 -0.72739784 -0.72739784 -0.70236871 -0.49213338
 -0.49213338  0.0582059   0.43586333  0.5039335   0.50808619  0.50808619
  0.52523855  0.52523855  0.56474225  0.56474225  0.59284366  0.73581999
  0.73581999  0.86667568  1.40195412  1.40195412  1.4163451   1.50293797
  1.50293797  1.56294597  1.56294597  1.63020293  1.6585033   1.6585033
  1.7230867   1.7230867   1.83129334  1.84157899  1.84157899  2.2786704
  2.2786704   2.29812438  2.71149977  2.71149977  2.84514576  2.92734488
  3.08408465  3.08408465  3.82557183  3.82557183  3.84414146  3.91152932
  3.91152932  3.92691316  3.92691316  3.97357854  3.97357854  4.21471808
  4.36022367  4.36022367  4.373008    4.373008    4.55671914  4.5776235
  4.5776235   4.65913157  4.65913157  4.85031706  4.94220678  4.94220678
  4.97426209  4.97426209  5.0571317   5.0571317   5.45470941  5.45470941
  5.47386006  5.47386006  5.71560108  6.16889719  6.16889719  6.53214597
  7.08513162 10.70343771 10.70343771 11.30582061 11.31239174 11.31239174
 11.96484593 12.06808114 12.06808114 12.08906354 12.08906354 12.0964892
 12.0964892  12.20695462 12.20695462 12.50446352 15.69313961 15.69313961
 15.74359596 15.74359596 15.9220035  15.9220035  16.19989286 16.27094908
 16.27094908 16.59601591 16.59601591 16.77193709 17.52047367 33.82634777]
E1 = -97.33351999994376  E_coul = 42.754163165370045
cycle= 5 E= -38.6520329186769  delta_E= -5.48e-05  |g|= 0.0019  |ddm|= 0.0201
    CPU time for cycle= 5     69.21 sec, wall time      0.55 sec
  HOMO = -0.49222929811289  LUMO = 0.0581693915157045
  mo_energy =
[-1.66067308 -1.1130431  -0.72682822 -0.72682822 -0.70209976 -0.4922293
 -0.4922293   0.05816939  0.43603247  0.50372875  0.50801664  0.50801664
  0.52516099  0.52516099  0.56472886  0.56472886  0.59273983  0.73598807
  0.73598807  0.86660817  1.40204158  1.40204158  1.41653996  1.50285178
  1.50285178  1.56290926  1.56290926  1.63008461  1.6584625   1.6584625
  1.72297936  1.72297936  1.83120589  1.84170654  1.84170654  2.27877494
  2.27877494  2.29827249  2.7114816   2.7114816   2.84480511  2.92740513
  3.08447957  3.08447957  3.82548405  3.82548405  3.84418846  3.9116918
  3.9116918   3.92677403  3.92677403  3.97356834  3.97356834  4.21493898
  4.36006642  4.36006642  4.3730037   4.3730037   4.55616913  4.57728673
  4.57728673  4.65958767  4.65958767  4.85041795  4.94254419  4.94254419
  4.97404813  4.97404813  5.05710112  5.05710112  5.45508788  5.45508788
  5.47444189  5.47444189  5.71618016  6.16929762  6.16929762  6.532698
  7.08546245 10.70426162 10.70426162 11.30626242 11.3123047  11.3123047
 11.9647959  12.06872936 12.06872936 12.08971334 12.08971334 12.09713866
 12.09713866 12.20760167 12.20760167 12.50512097 15.69393788 15.69393788
 15.74439627 15.74439627 15.92282419 15.92282419 16.20071169 16.27182087
 16.27182087 16.59685416 16.59685416 16.772763   17.52039916 33.82741455]
E1 = -97.33092159964026  E_coul = 42.75156357203415
cycle= 6 E= -38.6520341117093  delta_E= -1.19e-06  |g|= 0.000364  |ddm|= 0.00285
    CPU time for cycle= 6     69.65 sec, wall time      0.55 sec
  HOMO = -0.492228749509904  LUMO = 0.0581875012461734
  mo_energy =
[-1.66065291 -1.11304807 -0.72679538 -0.72679538 -0.70210523 -0.49222875
 -0.49222875  0.0581875   0.43602179  0.50374867  0.5080102   0.5080102
  0.52517144  0.52517144  0.56472019  0.56472019  0.59273556  0.73598291
  0.73598291  0.86660757  1.40202369  1.40202369  1.41652639  1.50284747
  1.50284747  1.56290044  1.56290044  1.63010715  1.65846068  1.65846068
  1.72297349  1.72297349  1.83120109  1.84170147  1.84170147  2.27878083
  2.27878083  2.29827371  2.71148131  2.71148131  2.844845    2.92739162
  3.0845009   3.0845009   3.8254708   3.8254708   3.84416665  3.91165704
  3.91165704  3.92676569  3.92676569  3.97356439  3.97356439  4.21492805
  4.36006156  4.36006156  4.37300551  4.37300551  4.55622368  4.57730071
  4.57730071  4.65958208  4.65958208  4.8504019   4.94254865  4.94254865
  4.97406849  4.97406849  5.05710998  5.05710998  5.45510164  5.45510164
  5.47446693  5.47446693  5.71620731  6.1693      6.1693      6.53273083
  7.08545635 10.70434433 10.70434433 11.30630875 11.31232243 11.31232243
 11.96484307 12.06875091 12.06875091 12.08974041 12.08974041 12.09715306
 12.09715306 12.20763375 12.20763375 12.50516908 15.69399134 15.69399134
 15.74446864 15.74446864 15.92291854 15.92291854 16.20081306 16.27189951
 16.27189951 16.59693312 16.59693312 16.77284144 17.52040866 33.82756778]
E1 = -97.33090474794848  E_coul = 42.75154664540492
cycle= 7 E= -38.6520341866467  delta_E= -7.49e-08  |g|= 0.000116  |ddm|= 0.000769
    CPU time for cycle= 7     61.37 sec, wall time      0.48 sec
  HOMO = -0.492253187121236  LUMO = 0.0581653633995573
  mo_energy =
[-1.66063836 -1.11307569 -0.72677262 -0.72677262 -0.70212665 -0.49225319
 -0.49225319  0.05816536  0.43602329  0.50372813  0.50798922  0.50798922
  0.5251542   0.5251542   0.56471344  0.56471344  0.59273345  0.7359919
  0.7359919   0.8665938   1.40201892  1.40201892  1.41652815  1.50283472
  1.50283472  1.56288163  1.56288163  1.63009371  1.65843097  1.65843097
  1.72294702  1.72294702  1.83118627  1.84170091  1.84170091  2.27878173
  2.27878173  2.29827574  2.71145463  2.71145463  2.84481122  2.92736845
  3.08451129  3.08451129  3.82545129  3.82545129  3.84414802  3.91164916
  3.91164916  3.92673744  3.92673744  3.9735372   3.9735372   4.21492344
  4.3600241   4.3600241   4.37297122  4.37297122  4.55618147  4.57726161
  4.57726161  4.6595991   4.6595991   4.85038049  4.94255768  4.94255768
  4.9740281   4.9740281   5.05706953  5.05706953  5.45510502  5.45510502
  5.47448379  5.47448379  5.71622105  6.16931505  6.16931505  6.53275166
  7.08544991 10.70434918 10.70434918 11.30630011 11.31226917 11.31226917
 11.96480666 12.06877271 12.06877271 12.08976827 12.08976827 12.09716529
 12.09716529 12.20766336 12.20766336 12.50519237 15.69399316 15.69399316
 15.74448388 15.74448388 15.92293917 15.92293917 16.20083463 16.27189999
 16.27189999 16.59695046 16.59695046 16.77286529 17.52035237 33.82756266]
E1 = -97.33098710741959  E_coul = 42.75162899484303
cycle= 8 E= -38.6520341966798  delta_E= -1e-08  |g|= 3.25e-05  |ddm|= 0.000363
    CPU time for cycle= 8     36.29 sec, wall time      0.28 sec
  HOMO = -0.492248430809743  LUMO = 0.0581695430010911
  mo_energy =
[-1.66062841 -1.1130691  -0.72675918 -0.72675918 -0.70212545 -0.49224843
 -0.49224843  0.05816954  0.4360264   0.50372992  0.50799263  0.50799263
  0.52515624  0.52515624  0.56471701  0.56471701  0.59273787  0.73599689
  0.73599689  0.86659602  1.40202222  1.40202222  1.4165332   1.50283742
  1.50283742  1.5628838   1.5628838   1.63009901  1.65843653  1.65843653
  1.72295265  1.72295265  1.83118892  1.84170623  1.84170623  2.27878731
  2.27878731  2.29828293  2.71146153  2.71146153  2.84481729  2.92737484
  3.08452074  3.08452074  3.8254555   3.8254555   3.84415279  3.91165452
  3.91165452  3.92674175  3.92674175  3.97354314  3.97354314  4.21493106
  4.36003111  4.36003111  4.37298063  4.37298063  4.55618764  4.57726768
  4.57726768  4.65960711  4.65960711  4.85038818  4.94256641  4.94256641
  4.97403664  4.97403664  5.05708121  5.05708121  5.45511471  5.45511471
  5.47449429  5.47449429  5.71623154  6.16932496  6.16932496  6.53276381
  7.08545838 10.70436198 10.70436198 11.30631304 11.31228361 11.31228361
 11.96481889 12.06878344 12.06878344 12.08978062 12.08978062 12.09717349
 12.09717349 12.20767647 12.20767647 12.50520571 15.69400256 15.69400256
 15.74449723 15.74449723 15.92295493 15.92295493 16.20085137 16.27191151
 16.27191151 16.59696563 16.59696563 16.77288181 17.52036709 33.82757913]
E1 = -97.33100067895965  E_coul = 42.75164256547988
cycle= 9 E= -38.652034197583  delta_E= -9.03e-10  |g|= 5.57e-06  |ddm|= 0.000117
    CPU time for cycle= 9     58.84 sec, wall time      0.46 sec
  HOMO = -0.492251155056047  LUMO = 0.0581669770094182
  mo_energy =
[-1.66063123 -1.11307206 -0.7267615  -0.7267615  -0.70212917 -0.49225116
 -0.49225116  0.05816698  0.43602562  0.50372831  0.50799053  0.50799053
  0.52515434  0.52515434  0.56471571  0.56471571  0.59273644  0.73599641
  0.73599641  0.86659407  1.40202071  1.40202071  1.4165315   1.50283534
  1.50283534  1.56288208  1.56288208  1.63009678  1.65843342  1.65843342
  1.72294947  1.72294947  1.83118699  1.84170482  1.84170482  2.27878595
  2.27878595  2.29828099  2.71145828  2.71145828  2.84481364  2.92737153
  3.08451849  3.08451849  3.82545276  3.82545276  3.84414927  3.91165172
  3.91165172  3.92673884  3.92673884  3.97354037  3.97354037  4.21492833
  4.36002707  4.36002707  4.37297678  4.37297678  4.55618409  4.57726374
  4.57726374  4.65960577  4.65960577  4.85038426  4.94256445  4.94256445
  4.97403242  4.97403242  5.05707655  5.05707655  5.45511159  5.45511159
  5.47449184  5.47449184  5.71622845  6.1693226   6.1693226   6.53276108
  7.0854545  10.70435718 10.70435718 11.30630808 11.31227767 11.31227767
 11.96481349 12.06878102 12.06878102 12.0897782  12.0897782  12.09717102
 12.09717102 12.20767398 12.20767398 12.50520263 15.6939983  15.6939983
 15.74449319 15.74449319 15.9229509  15.9229509  16.20084716 16.2719063
 16.2719063  16.59696068 16.59696068 16.77287701 17.5203607  33.8275717 ]
E1 = -97.33101422759631  E_coul = 42.75165611410908
Extra cycle  E= -38.6520341975904  delta_E= -7.46e-12  |g|= 2.94e-06  |ddm|= 1.34e-05
    CPU time for scf_cycle    634.50 sec, wall time      5.20 sec
    CPU time for SCF    634.52 sec, wall time      5.20 sec
converged SCF energy = -38.6520341975904
