#INFO: **** input file is /home/nkousuke/lustre/toBeSync/turboRVB/05turbo-genius-development/turbogenius_paper/04data/sanity_checks/03pyscf_HF_turbo_VMC_via_trexio/00open_boundary/results/O2++/pyscf-HF-workflow/run.py ****

from pyscf_wrapper import Pyscf_wrapper

# input variables
pyscf_chkfile="pyscf.chk"
structure_file="O2.xyz"

# input variables
omp_num_threads=128
charge=2
spin=0
basis="ccecp-ccpvqz"
ecp="ccecp"
scf_method="HF"
dft_xc="NA"
solver_newton=False
MP2_flag=False
CCSD_flag=False
pyscf_output="out.pyscf"
twist_average=False
exp_to_discard=0.0
kpt=[0.0, 0.0, 0.0]
kpt_grid=[1, 1, 1]
smearing_method="fermi"
smearing_sigma=0.0

pyscf_calc=Pyscf_wrapper(
                        structure_file=structure_file,
                        chkfile=pyscf_chkfile,
                        )

pyscf_calc.run_pyscf(
                  omp_num_threads=omp_num_threads,
                  charge=charge,
                  spin=spin,
                  basis=basis,
                  ecp=ecp,
                  scf_method=scf_method,
                  dft_xc=dft_xc,
                  solver_newton=solver_newton,
                  MP2_flag=MP2_flag,
                  CCSD_flag=CCSD_flag,
                  pyscf_output=pyscf_output,
                  twist_average=twist_average,
                  exp_to_discard=exp_to_discard,
                  kpt=kpt,
                  kpt_grid=kpt_grid,
                  smearing_method=smearing_method,
                  smearing_sigma=smearing_sigma
                  )
                #INFO: ******************** input file end ********************


System: uname_result(system='Linux', node='spcc-145', release='5.4.0-66-generic', version='#74-Ubuntu SMP Wed Jan 27 22:54:38 UTC 2021', machine='x86_64', processor='x86_64')  Threads 128
Python 3.7.3 (default, Mar 27 2019, 22:11:17) 
[GCC 7.3.0]
numpy 1.20.1  scipy 1.7.3
Date: Mon Dec 19 18:03:24 2022
PySCF version 2.0.1
PySCF path  /home/nkousuke/application/anaconda3/lib/python3.7/site-packages/pyscf

[CONFIG] conf_file /home/nkousuke/.pyscf_conf.py
[INPUT] verbose = 5
[INPUT] max_memory = 506594.02734375 
[INPUT] num. atoms = 2
[INPUT] num. electrons = 10
[INPUT] charge = 2
[INPUT] spin (= nelec alpha-beta = 2S) = 0
[INPUT] symmetry False subgroup None
[INPUT] Mole.unit = A
[INPUT]  1 O      0.000000000000   0.000000000000   0.603850000000 AA    0.000000000000   0.000000000000   1.141111120319 Bohr
[INPUT]  2 O      0.000000000000   0.000000000000  -0.603850000000 AA    0.000000000000   0.000000000000  -1.141111120319 Bohr
[INPUT] ---------------- BASIS SET ---------------- 
[INPUT] l, kappa, [nprim/nctr], expnt,             c_1 c_2 ...
[INPUT] O
[INPUT] 0    0    [9    /1   ]  54.775216         -0.0012444
                                25.616801         0.010733
                                11.980245         0.0018889
                                6.992317          -0.1742537
                                2.620277          0.0017622
                                1.225429          0.3161846
                                0.577797          0.4512023
                                0.268022          0.3121534
                                0.125346          0.0511167
[INPUT] 0    0    [1    /1   ]  1.351771             1
[INPUT] 0    0    [1    /1   ]  0.843157             1
[INPUT] 0    0    [1    /1   ]  0.22438              1
[INPUT] 1    0    [9    /1   ]  22.217266         0.0104866
                                10.74755          0.0366435
                                5.315785          0.0803674
                                2.660761          0.162701
                                1.331816          0.2377791
                                0.678626          0.2811422
                                0.333673          0.2643189
                                0.167017          0.1466014
                                0.083598          0.0458145
[INPUT] 1    0    [1    /1   ]  1.106737             1
[INPUT] 1    0    [1    /1   ]  0.452364             1
[INPUT] 1    0    [1    /1   ]  0.148562             1
[INPUT] 2    0    [1    /1   ]  4.008867             1
[INPUT] 2    0    [1    /1   ]  1.344331             1
[INPUT] 2    0    [1    /1   ]  0.455711             1
[INPUT] 3    0    [1    /1   ]  2.763115             1
[INPUT] 3    0    [1    /1   ]  0.876289             1
[INPUT] 4    0    [1    /1   ]  1.759081             1

nuclear repulsion = 15.7740991911236
number of shells = 28
number of NR pGTOs = 172
number of NR cGTOs = 108
basis = ccecp-ccpvqz
ecp = ccecp
CPU time:         6.50


******** <class 'pyscf.scf.hf.RHF'> ********
method = RHF
initial guess = minao
damping factor = 0
level_shift factor = 0
DIIS = <class 'pyscf.scf.diis.CDIIS'>
diis_start_cycle = 1
diis_space = 8
SCF conv_tol = 1e-09
SCF conv_tol_grad = None
SCF max_cycles = 200
direct_scf = True
direct_scf_tol = 1e-13
chkfile to save SCF result = pyscf.chk
max_memory 506594 MB (current use 106 MB)
Set gradient conv threshold to 3.16228e-05
E1 = -83.23188646302017  E_coul = 36.230172897606884
init E= -31.2276143742897
cond(S) = 8414.286590890144
    CPU time for initialize scf    103.72 sec, wall time      0.93 sec
  HOMO = -0.644598523733035  LUMO = -0.231807320700343
  mo_energy =
[-1.9202824  -1.09901258 -0.65237771 -0.65237771 -0.64459852 -0.23180732
 -0.23180732  0.21755945  0.42701269  0.42701269  0.45295983  0.46172469
  0.51995684  0.51995684  0.69506901  1.02483507  1.05793315  1.05793315
  1.24442332  1.24442332  1.43994809  1.43994809  1.63780814  1.65535946
  1.7727215   1.7727215   2.01340908  2.01340908  2.31213649  2.31213649
  2.40397857  2.6973253   3.17143888  3.17143888  3.21536846  3.21536846
  3.3822047   3.3822047   3.62427256  3.62427256  3.77964103  4.05327207
  4.07185117  4.07185117  4.21111782  4.21111782  4.23272437  4.23272437
  4.32681093  4.32681093  4.496331    4.496331    4.60822244  4.74197395
  5.24618179  5.47597215  5.47597215  6.8099455   7.00471339  7.00471339
  7.2062376   7.2062376   7.39336368  8.22953048  8.22953048  8.34709913
  8.34709913  8.62859613  8.71545575  8.71545575  8.87553604  8.87553604
  8.90557341  8.90557341  9.16535878  9.35374634  9.35374634 10.53415588
 10.53415588 10.65001473 10.77903439 10.77903439 11.61328463 11.61328463
 11.72561836 11.72561836 11.76711988 11.76711988 12.07217257 12.07217257
 12.31119148 12.31119148 12.35725928 12.41224688 12.51717675 12.51717675
 12.8244383  12.8244383  12.88103987 12.88103987 13.02642935 13.02642935
 14.11146429 14.8150553  14.8150553  16.38106466 32.68384649 32.83595705]
E1 = -70.11487562413733  E_coul = 24.59646665880114
cycle= 1 E= -29.7443097742126  delta_E= 1.48  |g|= 1.06  |ddm|=  2.6
    CPU time for cycle= 1     40.66 sec, wall time      0.33 sec
  HOMO = -1.79907534962898  LUMO = -1.11721000062454
  mo_energy =
[-2.91173616 -2.20483356 -1.87749242 -1.79907535 -1.79907535 -1.11721
 -1.11721    -0.7115374  -0.22993881 -0.22993881 -0.20228363 -0.17846253
 -0.09263316 -0.07611391 -0.07611391  0.16990319  0.16990319  0.3439508
  0.3439508   0.35932264  0.60972105  0.60972105  0.80412319  0.86578198
  0.98309014  0.98309014  1.06957799  1.06957799  1.385541    1.385541
  1.40613629  1.89992568  2.17514272  2.17514272  2.23944432  2.23944432
  2.29019328  2.29019328  2.65662958  2.66772507  2.66772507  2.98212491
  2.98212491  3.10908562  3.10908562  3.11898356  3.24451923  3.24451923
  3.38820007  3.38820007  3.50377173  3.50377173  3.53513533  3.60880802
  4.18973827  4.46749529  4.46749529  5.75964308  5.7766705   5.7766705
  5.97166574  5.97166574  6.21353134  7.09535043  7.09535043  7.23272621
  7.23272621  7.35746568  7.59900204  7.59900204  7.70235145  7.70235145
  7.76030097  7.76030097  7.93262341  8.22715814  8.22715814  9.35875193
  9.35875193  9.55870544  9.63084874  9.63084874 10.3562194  10.3562194
 10.48036217 10.48036217 10.52329694 10.52329694 10.87994071 10.87994071
 11.04176069 11.07559159 11.07559159 11.24136956 11.24807921 11.24807921
 11.50366676 11.50366676 11.63971938 11.63971938 11.70474449 11.70474449
 12.81747805 13.53092203 13.53092203 15.05629899 31.21265778 31.37783728]
E1 = -72.3634477493793  E_coul = 26.61778425633042
cycle= 2 E= -29.9715643019253  delta_E= -0.227  |g|= 0.239  |ddm|=  1.5
    CPU time for cycle= 2     74.17 sec, wall time      0.68 sec
  HOMO = -1.62368535181068  LUMO = -0.929901306823188
  mo_energy =
[-2.68180989 -2.05803057 -1.71327045 -1.62368535 -1.62368535 -0.92990131
 -0.92990131 -0.48045829 -0.18947533 -0.18947533 -0.17732619 -0.11741236
 -0.04990276 -0.04866857 -0.04866857  0.26342596  0.26342596  0.39736789
  0.44854907  0.44854907  0.67981458  0.67981458  0.88497882  0.92639528
  1.04627258  1.04627258  1.18480817  1.18480817  1.4880718   1.4880718
  1.53967085  1.95923197  2.29481925  2.29481925  2.34574343  2.34574343
  2.45735582  2.45735582  2.7643635   2.7643635   2.84568421  3.14075014
  3.14075014  3.21348196  3.27769967  3.27769967  3.37604197  3.37604197
  3.47894019  3.47894019  3.62214877  3.62214877  3.70170567  3.80086703
  4.34491395  4.5915854   4.5915854   5.9141144   6.01550441  6.01550441
  6.21397509  6.21397509  6.43079553  7.27528234  7.27528234  7.39633094
  7.39633094  7.62143255  7.75561526  7.75561526  7.91619183  7.91619183
  7.92228497  7.92228497  8.17211609  8.3957437   8.3957437   9.5590076
  9.5590076   9.72472015  9.82921601  9.82921601 10.59017327 10.59017327
 10.71800445 10.71800445 10.75097159 10.75097159 11.09123026 11.09123026
 11.31647154 11.31647154 11.32589965 11.45890784 11.50729482 11.50729482
 11.77965662 11.77965662 11.88253765 11.88253765 11.98151724 11.98151724
 13.0947556  13.79771375 13.79771375 15.35706131 31.58146173 31.74061689]
E1 = -72.14742538101385  E_coul = 26.395004136505754
cycle= 3 E= -29.9783220533845  delta_E= -0.00676  |g|= 0.0212  |ddm|= 0.345
    CPU time for cycle= 3     61.97 sec, wall time      0.49 sec
  HOMO = -1.61778427824449  LUMO = -0.921515201343014
  mo_energy =
[-2.67518729 -2.05142124 -1.70931902 -1.61778428 -1.61778428 -0.9215152
 -0.9215152  -0.47198886 -0.18636752 -0.18636752 -0.1758451  -0.11402014
 -0.04668907 -0.04668907 -0.04539945  0.26957496  0.26957496  0.40043339
  0.45516813  0.45516813  0.6856405   0.6856405   0.88972368  0.93116044
  1.05118515  1.05118515  1.19116461  1.19116461  1.49453819  1.49453819
  1.54684423  1.96407474  2.30215618  2.30215618  2.35335778  2.35335778
  2.46407541  2.46407541  2.7719934   2.7719934   2.85309984  3.14918192
  3.14918192  3.22171798  3.28556426  3.28556426  3.38373404  3.38373404
  3.48715739  3.48715739  3.63132655  3.63132655  3.70963363  3.80798324
  4.35251207  4.59927535  4.59927535  5.92242421  6.02239771  6.02239771
  6.22101258  6.22101258  6.43788339  7.28475552  7.28475552  7.4062233
  7.4062233   7.62944485  7.76529064  7.76529064  7.92590027  7.92590027
  7.93065976  7.93065976  8.17927409  8.40564971  8.40564971  9.56815505
  9.56815505  9.73605114  9.83898448  9.83898448 10.5994199  10.5994199
 10.72761553 10.72761553 10.7603949  10.7603949  11.10170181 11.10170181
 11.32555352 11.32555352 11.33233601 11.47065574 11.51572164 11.51572164
 11.78782594 11.78782594 11.89296211 11.89296211 11.98954651 11.98954651
 13.10194144 13.80617362 13.80617362 15.36457777 31.58610459 31.74557771]
E1 = -72.15451018519941  E_coul = 26.40195534850069
cycle= 4 E= -29.9784556455751  delta_E= -0.000134  |g|= 0.00377  |ddm|= 0.0428
    CPU time for cycle= 4     76.28 sec, wall time      0.61 sec
  HOMO = -1.61833754094554  LUMO = -0.921913716927832
  mo_energy =
[-2.67584228 -2.05174508 -1.71060894 -1.61833754 -1.61833754 -0.92191372
 -0.92191372 -0.47242184 -0.18655259 -0.18655259 -0.17612424 -0.11418974
 -0.04678647 -0.04678647 -0.04569515  0.26925628  0.26925628  0.40029869
  0.45483355  0.45483355  0.68544299  0.68544299  0.88942033  0.93093915
  1.05099861  1.05099861  1.19071245  1.19071245  1.49419661  1.49419661
  1.54636891  1.96384     2.30170323  2.30170323  2.3529639   2.3529639
  2.46331602  2.46331602  2.77163607  2.77163607  2.85233221  3.14855788
  3.14855788  3.22155754  3.28481022  3.28481022  3.38332707  3.38332707
  3.48694764  3.48694764  3.63108335  3.63108335  3.70908005  3.807162
  4.35202338  4.59882522  4.59882522  5.92190805  6.02134971  6.02134971
  6.21997807  6.21997807  6.43700663  7.28409172  7.28409172  7.40560601
  7.40560601  7.62843889  7.76456288  7.76456288  7.92517366  7.92517366
  7.92972828  7.92972828  8.17816254  8.4049842   8.4049842   9.56732139
  9.56732139  9.73575644  9.83836219  9.83836219 10.59824944 10.59824944
 10.72662865 10.72662865 10.75927872 10.75927872 11.10095343 11.10095343
 11.32462572 11.32462572 11.33098077 11.47023412 11.51463654 11.51463654
 11.78653388 11.78653388 11.89221832 11.89221832 11.9882389  11.9882389
 13.10077873 13.805119   13.805119   15.3634493  31.58456655 31.74410017]
E1 = -72.15630435413279  E_coul = 26.403744852928604
cycle= 5 E= -29.9784603100806  delta_E= -4.66e-06  |g|= 0.000406  |ddm|= 0.0083
    CPU time for cycle= 5     58.73 sec, wall time      0.46 sec
  HOMO = -1.61829644647248  LUMO = -0.921813790085865
  mo_energy =
[-2.67576967 -2.05163726 -1.71058065 -1.61829645 -1.61829645 -0.92181379
 -0.92181379 -0.47230216 -0.1865355  -0.1865355  -0.17609145 -0.11418308
 -0.0467737  -0.0467737  -0.04566548  0.26924801  0.26924801  0.40031676
  0.45486025  0.45486025  0.68544717  0.68544717  0.88946865  0.93099264
  1.05103689  1.05103689  1.19076014  1.19076014  1.49421994  1.49421994
  1.54639832  1.96390022  2.30171215  2.30171215  2.35295809  2.35295809
  2.46335018  2.46335018  2.77163726  2.77163726  2.85242199  3.14862252
  3.14862252  3.22160665  3.28486024  3.28486024  3.38341349  3.38341349
  3.48698294  3.48698294  3.63116087  3.63116087  3.70919424  3.80725348
  4.3521148   4.59887336  4.59887336  5.92205283  6.02150241  6.02150241
  6.22013213  6.22013213  6.43715968  7.28414217  7.28414217  7.40565003
  7.40565003  7.62858064  7.76458927  7.76458927  7.92520101  7.92520101
  7.92978219  7.92978219  8.17821284  8.40502607  8.40502607  9.56737219
  9.56737219  9.73590014  9.83848363  9.83848363 10.59835601 10.59835601
 10.72675772 10.72675772 10.75939083 10.75939083 11.10110059 11.10110059
 11.32477258 11.32477258 11.33110526 11.47046536 11.51477042 11.51477042
 11.78670766 11.78670766 11.89243363 11.89243363 11.98840802 11.98840802
 13.1009369  13.80528589 13.80528589 15.36364553 31.5848681  31.74440649]
E1 = -72.15576471566139  E_coul = 26.40320516432669
cycle= 6 E= -29.9784603602111  delta_E= -5.01e-08  |g|= 3.35e-05  |ddm|= 0.000887
    CPU time for cycle= 6     45.31 sec, wall time      0.36 sec
  HOMO = -1.6183130491979  LUMO = -0.921832652715264
  mo_energy =
[-2.67578486 -2.05165629 -1.7106004  -1.61831305 -1.61831305 -0.92183265
 -0.92183265 -0.47232066 -0.18653614 -0.18653614 -0.1760947  -0.11418459
 -0.04677627 -0.04677627 -0.04566841  0.26924523  0.26924523  0.40031428
  0.45485383  0.45485383  0.68544322  0.68544322  0.88946043  0.93098545
  1.05102977  1.05102977  1.19075068  1.19075068  1.49421308  1.49421308
  1.54639196  1.96389098  2.30170861  2.30170861  2.35295493  2.35295493
  2.46334336  2.46334336  2.7716328   2.7716328   2.85240692  3.14860876
  3.14860876  3.22159826  3.28484824  3.28484824  3.38339918  3.38339918
  3.48697509  3.48697509  3.63114794  3.63114794  3.7091765   3.80723745
  4.3521006   4.59886446  4.59886446  5.92202936  6.02147312  6.02147312
  6.22010254  6.22010254  6.43713224  7.28413331  7.28413331  7.40564051
  7.40564051  7.62855613  7.76457991  7.76457991  7.92519142  7.92519142
  7.92977299  7.92977299  8.17820411  8.4050164   8.4050164   9.56736211
  9.56736211  9.73587786  9.8384637   9.8384637  10.59833352 10.59833352
 10.72673447 10.72673447 10.75936761 10.75936761 11.10107531 11.10107531
 11.32474861 11.32474861 11.33108307 11.47042985 11.51474697 11.51474697
 11.78667388 11.78667388 11.892398   11.892398   11.98837508 11.98837508
 13.10091052 13.80525726 13.80525726 15.36361418 31.58481145 31.74434941]
E1 = -72.15577692011755  E_coul = 26.4032173685844
cycle= 7 E= -29.9784603604095  delta_E= -1.98e-10  |g|= 3.89e-06  |ddm|= 5.82e-05
    CPU time for cycle= 7     68.50 sec, wall time      0.54 sec
  HOMO = -1.61831376635804  LUMO = -0.921833791626548
  mo_energy =
[-2.67578623 -2.05165662 -1.71060071 -1.61831377 -1.61831377 -0.92183379
 -0.92183379 -0.47232194 -0.18653695 -0.18653695 -0.17609488 -0.11418518
 -0.04677657 -0.04677657 -0.04566904  0.26924435  0.26924435  0.40031388
  0.454853    0.454853    0.68544253  0.68544253  0.8894599   0.93098499
  1.05102932  1.05102932  1.19074958  1.19074958  1.49421207  1.49421207
  1.54639077  1.96389061  2.30170744  2.30170744  2.35295378  2.35295378
  2.46334201  2.46334201  2.77163176  2.77163176  2.85240562  3.14860745
  3.14860745  3.22159743  3.28484689  3.28484689  3.38339827  3.38339827
  3.48697421  3.48697421  3.63114696  3.63114696  3.70917542  3.8072362
  4.35209958  4.59886348  4.59886348  5.92202848  6.02147182  6.02147182
  6.22010121  6.22010121  6.43713112  7.28413181  7.28413181  7.40563907
  7.40563907  7.62855458  7.76457848  7.76457848  7.92519     7.92519
  7.92977132  7.92977132  8.17820239  8.40501493  8.40501493  9.56736055
  9.56736055  9.73587663  9.83846233  9.83846233 10.59833195 10.59833195
 10.72673291 10.72673291 10.75936609 10.75936609 11.10107388 11.10107388
 11.32474712 11.32474712 11.33108153 11.47042849 11.51474547 11.51474547
 11.7866724  11.7866724  11.89239654 11.89239654 11.9883736  11.9883736
 13.10090908 13.80525578 13.80525578 15.36361266 31.5848103  31.74434826]
E1 = -72.15578126533097  E_coul = 26.403221713793425
Extra cycle  E= -29.9784603604139  delta_E= -4.4e-12  |g|= 9.41e-07  |ddm|= 6.81e-06
    CPU time for scf_cycle    588.72 sec, wall time      4.85 sec
    CPU time for SCF    588.74 sec, wall time      4.85 sec
converged SCF energy = -29.9784603604139
