#INFO: **** input file is /home/nkousuke/lustre/toBeSync/turboRVB/05turbo-genius-development/turbogenius_paper/04data/sanity_checks/03pyscf_HF_turbo_VMC_via_trexio/00open_boundary/results/H3CSH/pyscf-HF-workflow/run.py ****

from pyscf_wrapper import Pyscf_wrapper

# input variables
pyscf_chkfile="pyscf.chk"
structure_file="H3CSH.xyz"

# input variables
omp_num_threads=128
charge=0
spin=0
basis="ccecp-ccpvqz"
ecp="ccecp"
scf_method="HF"
dft_xc="NA"
solver_newton=False
MP2_flag=False
CCSD_flag=False
pyscf_output="out.pyscf"
twist_average=False
exp_to_discard=0.0
kpt=[0.0, 0.0, 0.0]
kpt_grid=[1, 1, 1]
smearing_method="fermi"
smearing_sigma=0.0

pyscf_calc=Pyscf_wrapper(
                        structure_file=structure_file,
                        chkfile=pyscf_chkfile,
                        )

pyscf_calc.run_pyscf(
                  omp_num_threads=omp_num_threads,
                  charge=charge,
                  spin=spin,
                  basis=basis,
                  ecp=ecp,
                  scf_method=scf_method,
                  dft_xc=dft_xc,
                  solver_newton=solver_newton,
                  MP2_flag=MP2_flag,
                  CCSD_flag=CCSD_flag,
                  pyscf_output=pyscf_output,
                  twist_average=twist_average,
                  exp_to_discard=exp_to_discard,
                  kpt=kpt,
                  kpt_grid=kpt_grid,
                  smearing_method=smearing_method,
                  smearing_sigma=smearing_sigma
                  )
                #INFO: ******************** input file end ********************


System: uname_result(system='Linux', node='spcc-200', release='5.4.0-66-generic', version='#74-Ubuntu SMP Wed Jan 27 22:54:38 UTC 2021', machine='x86_64', processor='x86_64')  Threads 128
Python 3.7.3 (default, Mar 27 2019, 22:11:17) 
[GCC 7.3.0]
numpy 1.20.1  scipy 1.7.3
Date: Mon Dec 19 18:07:57 2022
PySCF version 2.0.1
PySCF path  /home/nkousuke/application/anaconda3/lib/python3.7/site-packages/pyscf

[CONFIG] conf_file /home/nkousuke/.pyscf_conf.py
[INPUT] verbose = 5
[INPUT] max_memory = 507440.58984375 
[INPUT] num. atoms = 6
[INPUT] num. electrons = 14
[INPUT] charge = 0
[INPUT] spin (= nelec alpha-beta = 2S) = 0
[INPUT] symmetry False subgroup None
[INPUT] Mole.unit = A
[INPUT]  1 C     -0.047746000000   1.150109000000   0.000000000000 AA   -0.090226863543   2.173391023397   0.000000000000 Bohr
[INPUT]  2 S     -0.047746000000  -0.663637000000   0.000000000000 AA   -0.090226863543  -1.254092176128   0.000000000000 Bohr
[INPUT]  3 H      1.278061000000  -0.829659000000   0.000000000000 AA    2.415185260488  -1.567828286781   0.000000000000 Bohr
[INPUT]  4 H     -1.091202000000   1.456430000000   0.000000000000 AA   -2.062072926578   2.752253819600   0.000000000000 Bohr
[INPUT]  5 H      0.431778000000   1.545383000000   0.891004000000 AA    0.815942166612   2.920350627559   1.683753535892 Bohr
[INPUT]  6 H      0.431778000000   1.545383000000  -0.891004000000 AA    0.815942166612   2.920350627559  -1.683753535892 Bohr
[INPUT] ---------------- BASIS SET ---------------- 
[INPUT] l, kappa, [nprim/nctr], expnt,             c_1 c_2 ...
[INPUT] H
[INPUT] 0    0    [8    /1   ]  23.843185         0.0041149
                                10.212443         0.0104644
                                4.374164          0.0280111
                                1.873529          0.0758862
                                0.802465          0.1821062
                                0.343709          0.3485214
                                0.147217          0.3782313
                                0.063055          0.1164241
[INPUT] 0    0    [1    /1   ]  0.081856             1
[INPUT] 0    0    [1    /1   ]  0.233254             1
[INPUT] 0    0    [1    /1   ]  0.664673             1
[INPUT] 1    0    [1    /1   ]  0.284469             1
[INPUT] 1    0    [1    /1   ]  0.847159             1
[INPUT] 1    0    [1    /1   ]  2.522868             1
[INPUT] 2    0    [1    /1   ]  0.665279             1
[INPUT] 2    0    [1    /1   ]  2.048739             1
[INPUT] 3    0    [1    /1   ]  1.42146              1
[INPUT] C
[INPUT] 0    0    [9    /1   ]  13.073594         0.0051583
                                6.541187          0.0603424
                                4.573411          -0.1978471
                                1.637494          -0.081034
                                0.819297          0.2321726
                                0.409924          0.2914643
                                0.2313            0.4336405
                                0.102619          0.213194
                                0.051344          0.0049848
[INPUT] 0    0    [1    /1   ]  0.846879             1
[INPUT] 0    0    [1    /1   ]  0.269659             1
[INPUT] 0    0    [1    /1   ]  0.109576             1
[INPUT] 1    0    [9    /1   ]  9.934169          0.0209076
                                3.886955          0.0572698
                                1.871016          0.1122682
                                0.935757          0.2130082
                                0.468003          0.2835815
                                0.239473          0.3011207
                                0.117063          0.2016934
                                0.058547          0.0453575
                                0.029281          0.0029775
[INPUT] 1    0    [1    /1   ]  0.804681             1
[INPUT] 1    0    [1    /1   ]  0.313254             1
[INPUT] 1    0    [1    /1   ]  0.105389             1
[INPUT] 2    0    [1    /1   ]  2.01376              1
[INPUT] 2    0    [1    /1   ]  0.684884             1
[INPUT] 2    0    [1    /1   ]  0.240171             1
[INPUT] 3    0    [1    /1   ]  0.457302             1
[INPUT] 3    0    [1    /1   ]  1.32493              1
[INPUT] 4    0    [1    /1   ]  1.03418              1
[INPUT] S
[INPUT] 0    0    [10   /1   ]  14.05257          0.002102
                                7.864913          -0.011042
                                4.401818          0.086618
                                2.4636            -0.271004
                                1.378823          -0.151274
                                0.771696          0.136044
                                0.431901          0.39436
                                0.241726          0.432098
                                0.135289          0.230974
                                0.075718          0.051205
[INPUT] 0    0    [1    /1   ]  0.818729             1
[INPUT] 0    0    [1    /1   ]  0.332501             1
[INPUT] 0    0    [1    /1   ]  0.135035             1
[INPUT] 1    0    [10   /1   ]  6.808844          -0.003573
                                3.94156           0.001903
                                2.281723          -0.065016
                                1.320863          0.042305
                                0.764632          0.158772
                                0.442637          0.278172
                                0.256237          0.293821
                                0.148333          0.248015
                                0.085868          0.114905
                                0.049708          0.032934
[INPUT] 1    0    [1    /1   ]  2.088209             1
[INPUT] 1    0    [1    /1   ]  0.838124             1
[INPUT] 1    0    [1    /1   ]  0.33639              1
[INPUT] 2    0    [1    /1   ]  1.68189              1
[INPUT] 2    0    [1    /1   ]  0.613672             1
[INPUT] 2    0    [1    /1   ]  0.223911             1
[INPUT] 3    0    [1    /1   ]  0.898397             1
[INPUT] 3    0    [1    /1   ]  0.339271             1
[INPUT] 4    0    [1    /1   ]  0.691446             1

nuclear repulsion = 21.52003622104
number of shells = 68
number of NR pGTOs = 324
number of NR cGTOs = 228
basis = ccecp-ccpvqz
ecp = ccecp
CPU time:         6.65


******** <class 'pyscf.scf.hf.RHF'> ********
method = RHF
initial guess = minao
damping factor = 0
level_shift factor = 0
DIIS = <class 'pyscf.scf.diis.CDIIS'>
diis_start_cycle = 1
diis_space = 8
SCF conv_tol = 1e-09
SCF conv_tol_grad = None
SCF max_cycles = 200
direct_scf = True
direct_scf_tol = 1e-13
chkfile to save SCF result = pyscf.chk
max_memory 507440 MB (current use 106 MB)
Set gradient conv threshold to 3.16228e-05
E1 = -68.53081879728339  E_coul = 29.511742649266697
init E= -17.4990399269767
cond(S) = 64917.443176006505
    CPU time for initialize scf    309.98 sec, wall time      2.65 sec
  HOMO = -0.282450892504716  LUMO = 0.0469711094861772
  mo_energy =
[-1.37458099 -0.97584122 -0.59197135 -0.54218969 -0.47561211 -0.40333435
 -0.28245089  0.04697111  0.08990075  0.13380874  0.15036398  0.15219354
  0.25714499  0.26419987  0.27666692  0.28516537  0.34859413  0.38601418
  0.4017204   0.41800682  0.42795247  0.44893808  0.45975163  0.48390245
  0.49252621  0.51470797  0.61979421  0.68628897  0.72734728  0.74195999
  0.76144283  0.80882599  0.83493417  0.83918951  0.84741211  0.84866669
  0.90660543  0.94161708  0.95771839  0.96927865  1.08189932  1.09632957
  1.1046033   1.11977122  1.13288869  1.16931198  1.2285047   1.25280801
  1.28884309  1.33518765  1.3980453   1.39911767  1.42824094  1.43261095
  1.4993028   1.50050996  1.51329108  1.58520791  1.59834862  1.65848408
  1.66707357  1.7986102   1.88724905  1.89439606  2.00011421  2.01187308
  2.03141966  2.05013971  2.09260487  2.09961735  2.13822653  2.18966742
  2.20063738  2.2543115   2.25763559  2.30970194  2.35418557  2.41947352
  2.45458578  2.46795076  2.47208013  2.48607843  2.53233375  2.57946514
  2.59717213  2.61339461  2.63114899  2.68452399  2.74021905  2.75683743
  2.8291352   2.84180046  2.9023847   2.91767593  2.9283563   2.95840676
  3.03512319  3.0453391   3.08209299  3.11208792  3.25412264  3.26893098
  3.30555049  3.3127597   3.33909042  3.37321527  3.41403187  3.46482555
  3.51896125  3.55044881  3.56400823  3.59681921  3.60284502  3.61227631
  3.72957895  3.74796031  3.80785532  3.82201934  3.85469405  3.8799446
  3.89353931  3.9561841   3.99974641  4.04256979  4.11948095  4.12073154
  4.13303623  4.14996099  4.20578777  4.4157523   4.4444031   4.68399613
  4.72180818  4.81371318  4.9948851   5.46124942  5.557064    5.5804096
  5.6132983   5.68289107  5.68498582  5.94459117  5.99106818  6.00414494
  6.13722588  6.17791858  6.19368628  6.22179396  6.22196019  6.25890457
  6.27036374  6.3765037   6.38479695  6.43068348  6.4484269   6.49983049
  6.5043999   6.59297991  6.62621527  6.641132    6.71411729  6.73073257
  6.84454174  6.91166154  6.91891418  6.97808342  7.038964    7.28711333
  7.34499319  7.36519195  7.36893438  7.42534608  7.45164169  7.5743555
  7.68238596  7.69097417  7.78053202  7.81762552  7.82052898  7.87348045
  7.98098863  7.99376029  8.03498955  8.05224624  8.0621183   8.1327351
  8.2664875   8.28657515  8.30620485  8.38782991  8.55009114  8.57799499
  8.60145131  8.61423439  8.62280705  8.67046228  8.71289927  8.7174597
  8.72325623  8.75784602  8.77571835  8.90288439  9.02507927  9.05916172
  9.11736872  9.14540107  9.31558345  9.32968199  9.36027584  9.3621023
  9.49569733  9.55154278  9.62722756 10.3110537  10.36981436 10.37452521
 10.55641707 10.56043199 10.56628642 10.61592844 10.6340144  10.84081783
 10.86053974 11.14665952 12.78063396 12.78884637 15.38680144 20.5678311 ]
E1 = -69.63576072151136  E_coul = 30.33079550520598
cycle= 1 E= -17.7849289952654  delta_E= -0.286  |g|= 0.242  |ddm|= 4.14
    CPU time for cycle= 1     46.30 sec, wall time      0.39 sec
  HOMO = -0.344991762091966  LUMO = 0.0922408487626703
  mo_energy =
[-1.05688044 -0.88230266 -0.62071058 -0.60977568 -0.53599901 -0.44697996
 -0.34499176  0.09224085  0.12868055  0.15859279  0.16370957  0.20266605
  0.26619098  0.27702472  0.29360749  0.31851477  0.38287077  0.42531098
  0.43907653  0.45496544  0.45542302  0.4874807   0.50091705  0.51784809
  0.52886788  0.55620549  0.65038986  0.70860646  0.73927058  0.75674756
  0.77719451  0.84250758  0.84762153  0.85300323  0.86060646  0.86613593
  0.93926234  0.96158114  0.96938451  0.98260201  1.1019127   1.10586786
  1.11427387  1.14317242  1.15393538  1.1901533   1.25639309  1.29031891
  1.32754497  1.38625237  1.43730411  1.45084202  1.46576207  1.47811772
  1.54686721  1.55416678  1.56931488  1.62760331  1.64862777  1.71787837
  1.71926678  1.83671986  1.9208669   1.93350955  2.04032999  2.04590989
  2.0750619   2.0858542   2.13711133  2.14515429  2.18232326  2.22275716
  2.23904265  2.27992736  2.28590199  2.32324763  2.39375236  2.4279303
  2.47347616  2.48653789  2.49729617  2.50407045  2.56673351  2.5948251
  2.60888866  2.61783791  2.65147386  2.69189634  2.77152643  2.78575321
  2.84283979  2.86397702  2.92964466  2.94211852  2.94433148  2.99090158
  3.04401386  3.08059467  3.09169582  3.15936581  3.28703954  3.30819761
  3.33661791  3.34056055  3.36782982  3.41128481  3.45486263  3.5061163
  3.57801647  3.60753975  3.62013433  3.65363716  3.66541941  3.69352857
  3.79090388  3.81582273  3.87252622  3.88917289  3.92012127  3.95298457
  3.95540943  4.01935587  4.07356401  4.10170297  4.17590369  4.18369495
  4.18452936  4.21139009  4.26100121  4.48049338  4.52419446  4.74277827
  4.7718615   4.87763571  5.03914888  5.53079828  5.63287398  5.65570376
  5.68927692  5.74652579  5.7525049   6.01315623  6.06287598  6.06566027
  6.15723728  6.22165938  6.22838943  6.25668131  6.27028503  6.28274193
  6.29887306  6.42838461  6.44034986  6.49278476  6.51460357  6.53879884
  6.54329176  6.65683154  6.68517266  6.69458802  6.72952706  6.74799928
  6.89043787  6.96125121  6.98787141  7.0296493   7.06581101  7.29335308
  7.32352685  7.4153077   7.43615682  7.46257795  7.47627761  7.63726527
  7.72162313  7.73064859  7.82080622  7.85108093  7.85357071  7.92788717
  8.00421594  8.01596205  8.05438885  8.07618276  8.08707653  8.15258455
  8.26268179  8.26313382  8.31543335  8.37700261  8.53797849  8.61690273
  8.62226073  8.64534453  8.66649103  8.71377041  8.74420169  8.75156566
  8.79308026  8.79765739  8.80298641  8.89863723  9.03922034  9.0633621
  9.18660119  9.188341    9.3168423   9.36444147  9.40234779  9.406028
  9.55337847  9.60807673  9.70913769 10.36687431 10.41883994 10.42393666
 10.6231255  10.63090861 10.63840439 10.68134178 10.69998636 10.9167815
 10.93821713 11.17003258 12.86159981 12.86948372 15.47731991 20.70118162]
E1 = -69.76243132849697  E_coul = 30.4356695242134
cycle= 2 E= -17.8067255832436  delta_E= -0.0218  |g|= 0.0763  |ddm|= 0.515
    CPU time for cycle= 2    103.08 sec, wall time      0.85 sec
  HOMO = -0.357588481116786  LUMO = 0.0990399146405039
  mo_energy =
[-1.04158716 -0.87001997 -0.60544543 -0.58595959 -0.52553962 -0.45981638
 -0.35758848  0.09903991  0.13768885  0.16636277  0.16781014  0.20299238
  0.26927     0.28644368  0.29644169  0.32671949  0.37888234  0.42440227
  0.44393245  0.45437103  0.46347493  0.48702635  0.51401002  0.52991849
  0.53228256  0.56062244  0.65240787  0.71049116  0.74548744  0.76409326
  0.78172471  0.84261447  0.85735743  0.86111741  0.87102719  0.87314033
  0.95260258  0.96759236  0.97833379  0.98628654  1.11044685  1.11454824
  1.12092872  1.14822772  1.16411443  1.19569428  1.26487492  1.30345948
  1.33510471  1.37958556  1.44067509  1.44392108  1.46810157  1.47657355
  1.53629942  1.54499609  1.55874373  1.62505087  1.64100325  1.70716537
  1.70829793  1.84404696  1.93760302  1.94746758  2.06028412  2.06665166
  2.08754735  2.10534895  2.15296843  2.15461487  2.20172781  2.24124235
  2.26254242  2.29522106  2.30336446  2.34243105  2.38943425  2.45209729
  2.48420922  2.50730191  2.51641344  2.51843382  2.5690559   2.61083521
  2.62887915  2.63857261  2.66819323  2.71397413  2.77619854  2.79190722
  2.85851691  2.87856812  2.93743059  2.95043382  2.95678134  3.00038051
  3.06173441  3.08248784  3.10856809  3.16355958  3.2982196   3.31658877
  3.35039387  3.35109511  3.38141708  3.42678067  3.47071746  3.52076757
  3.57453607  3.60763438  3.63016235  3.65089161  3.65975104  3.66958045
  3.78901406  3.81030183  3.86209721  3.88209512  3.91041834  3.93707
  3.94634039  4.02413407  4.0588084   4.09741793  4.17995106  4.18618818
  4.20006503  4.2189303   4.25423744  4.4796215   4.5105845   4.73181718
  4.76285464  4.88110126  5.0462972   5.56336879  5.66565518  5.68579461
  5.72336289  5.77991002  5.78192731  6.04564862  6.09683985  6.09934206
  6.19634777  6.25499327  6.26012334  6.29038769  6.30185787  6.31365922
  6.32348304  6.45403041  6.47314553  6.52508252  6.53977762  6.56148571
  6.57354651  6.69263612  6.71576258  6.72843966  6.76939145  6.78424358
  6.92653158  6.99532156  7.02209401  7.05851671  7.10196755  7.33606278
  7.37174445  7.45544069  7.4720898   7.48959055  7.51254854  7.66628682
  7.75046247  7.75936576  7.84796493  7.87951111  7.88160483  7.95629586
  8.03453011  8.04307798  8.07816492  8.10084066  8.11808822  8.17874971
  8.3003584   8.31970476  8.34284414  8.42224431  8.58830762  8.64920291
  8.65711524  8.68626182  8.69152816  8.74662922  8.78055398  8.78922741
  8.82104538  8.83459671  8.84147324  8.94269742  9.06728295  9.09370692
  9.17503166  9.21603393  9.37111543  9.39325844  9.43180924  9.43844396
  9.58280382  9.63868759  9.68861537 10.39866224 10.45200603 10.45536394
 10.65768387 10.66951934 10.67193572 10.71712134 10.73531398 10.95231301
 10.97509258 11.19241521 12.90326194 12.9054729  15.44285822 20.75018366]
E1 = -69.72254412686388  E_coul = 30.393530906666797
cycle= 3 E= -17.8089769991571  delta_E= -0.00225  |g|= 0.0279  |ddm|= 0.168
    CPU time for cycle= 3     82.19 sec, wall time      0.66 sec
  HOMO = -0.355130963897007  LUMO = 0.098832362414263
  mo_energy =
[-1.04421106 -0.87125438 -0.60945833 -0.59372847 -0.52954135 -0.45889766
 -0.35513096  0.09883236  0.13751001  0.16586263  0.16632417  0.20563574
  0.26907669  0.28464601  0.29656892  0.32570269  0.38079045  0.42545322
  0.44376413  0.45521723  0.46242634  0.48759969  0.5119109   0.52935285
  0.53130545  0.56028481  0.65258643  0.71140859  0.74569054  0.76359636
  0.78092835  0.84290569  0.85684054  0.85999412  0.86833519  0.87163297
  0.94967094  0.96678062  0.97765072  0.98526934  1.10906274  1.1122518
  1.11937698  1.14790876  1.16228611  1.19595565  1.26448818  1.3009448
  1.33437378  1.38226321  1.44312947  1.44395178  1.4689018   1.47691165
  1.53950248  1.54751287  1.56160473  1.62739867  1.64335022  1.70983369
  1.71159198  1.84316418  1.93396072  1.94344154  2.05487331  2.0619767
  2.08432969  2.09992828  2.15042298  2.15116837  2.19656379  2.23819729
  2.25707724  2.29322468  2.30066475  2.34084863  2.39196566  2.44907584
  2.48463846  2.50567887  2.51570995  2.51600312  2.57029441  2.6095046
  2.62680587  2.63747823  2.66629898  2.71215362  2.77654641  2.79269403
  2.85760466  2.87608917  2.93847     2.95049216  2.95721473  2.9990703
  3.06070498  3.08412143  3.10669267  3.16324594  3.29749253  3.31598013
  3.34829856  3.35135354  3.37985882  3.42472378  3.46745418  3.51839277
  3.57650262  3.60815694  3.62844751  3.65280597  3.66297879  3.67571386
  3.79033831  3.81248102  3.86570561  3.88442103  3.91438546  3.9414081
  3.95031187  4.02293506  4.0633143   4.09971934  4.18101515  4.18759708
  4.19563764  4.21567912  4.25674883  4.47998301  4.51393202  4.73726151
  4.76767985  4.88249757  5.04852552  5.55415127  5.65613614  5.67793769
  5.71278992  5.77050102  5.77434106  6.03588271  6.08733088  6.09179063
  6.19283432  6.25223846  6.25386073  6.28423959  6.29879633  6.30782495
  6.32140475  6.45080675  6.46548068  6.51866689  6.53467023  6.55915676
  6.56750233  6.68377821  6.70860665  6.72154314  6.76726611  6.77985459
  6.9205216   6.99139291  7.01428055  7.05318366  7.09923113  7.33642435
  7.3731564   7.45069403  7.46182016  7.48514219  7.50709908  7.66015494
  7.7472038   7.75588189  7.84558997  7.87773562  7.87781876  7.95121531
  8.03084331  8.04031642  8.07892547  8.10060788  8.11394257  8.17769327
  8.30002316  8.31883863  8.34147575  8.42101321  8.58922136  8.64872897
  8.65274588  8.68265881  8.69171842  8.74373826  8.77943198  8.78705491
  8.81799201  8.82597966  8.83543148  8.94499747  9.07281305  9.09393948
  9.1811056   9.21480323  9.37204221  9.391433    9.43240399  9.43596065
  9.57922237  9.63454717  9.69492484 10.39439314 10.44770327 10.45216929
 10.65419156 10.66193187 10.66707533 10.71064769 10.72952667 10.94525716
 10.96907731 11.19695664 12.89405295 12.89979117 15.45267323 20.7291421 ]
E1 = -69.74728078045013  E_coul = 30.417889672462127
cycle= 4 E= -17.809354886948  delta_E= -0.000378  |g|= 0.00662  |ddm|= 0.066
    CPU time for cycle= 4     95.31 sec, wall time      0.79 sec
  HOMO = -0.354864109408097  LUMO = 0.0990748879097066
  mo_energy =
[-1.0428777  -0.87040578 -0.60820131 -0.5921167  -0.52910452 -0.45836488
 -0.35486411  0.09907489  0.13730403  0.16599865  0.16669151  0.20640321
  0.26903289  0.28491033  0.29698641  0.32578653  0.38132636  0.42601397
  0.44431643  0.4553337   0.46292499  0.48802252  0.51282345  0.53012819
  0.53156276  0.56063162  0.65296604  0.71147659  0.74567209  0.7636787
  0.78126411  0.84324802  0.85665465  0.86039781  0.8685549   0.87221199
  0.95025891  0.96724646  0.97793725  0.98546255  1.10936892  1.11261729
  1.11991925  1.14854207  1.16254563  1.19607137  1.26435923  1.30181601
  1.3351608   1.38241595  1.44361871  1.44433968  1.46921632  1.47750678
  1.53980432  1.54805712  1.56202877  1.62725905  1.6435808   1.71044363
  1.71213545  1.84351173  1.93476891  1.94453567  2.05602774  2.06285569
  2.08558897  2.10095047  2.15142108  2.15202649  2.19778291  2.23871792
  2.25824936  2.29362313  2.30132886  2.3410748   2.39253441  2.44891206
  2.48509271  2.50565801  2.51580891  2.51643232  2.57100193  2.61010214
  2.6271442   2.63719227  2.66654546  2.71203853  2.77704945  2.79323238
  2.85776517  2.87656497  2.93892853  2.95065831  2.95682443  2.99984094
  3.06069606  3.08397556  3.10726805  3.16405326  3.29771833  3.31647101
  3.34906976  3.3514356   3.38050665  3.42566885  3.46845697  3.51937604
  3.57689093  3.60879925  3.62928456  3.65310336  3.66369143  3.67658971
  3.79147864  3.81348608  3.86633273  3.88514978  3.91506569  3.94197548
  3.95073688  4.02423376  4.06389252  4.10017654  4.18172884  4.18870344
  4.19695946  4.21710598  4.25751216  4.48094384  4.51488779  4.73695977
  4.76746051  4.88327331  5.04876407  5.55649548  5.65830022  5.67999725
  5.71548102  5.77287764  5.77681286  6.03829812  6.08971545  6.09370093
  6.1925543   6.25264471  6.2551679   6.28562623  6.29898325  6.30960904
  6.32216509  6.45207053  6.4671343   6.52017282  6.53653709  6.56038899
  6.56876028  6.68564618  6.71065781  6.72315315  6.76625018  6.78027471
  6.92188317  6.99213537  7.01645034  7.05492352  7.09911667  7.33495923
  7.37193043  7.45136803  7.46457434  7.48656405  7.50797245  7.66216325
  7.74840975  7.75711381  7.84694409  7.87879412  7.87891694  7.95299826
  8.03184397  8.04140577  8.07969336  8.1016722   8.1150659   8.17852416
  8.29999572  8.31753857  8.34201323  8.42036768  8.58835478  8.64910966
  8.653955    8.68332676  8.69288329  8.74470798  8.78036002  8.7871476
  8.81930685  8.82847688  8.83692414  8.94372481  9.07274939  9.09264388
  9.18123561  9.2156261   9.37037209  9.39250025  9.43319722  9.43701982
  9.58078289  9.63606479  9.69557269 10.39610287 10.44919738 10.45359728
 10.65597192 10.66405761 10.66907673 10.71270128 10.73148519 10.9473345
 10.97110288 11.19602856 12.89662322 12.90214234 15.45287166 20.73474345]
E1 = -69.73901990151928  E_coul = 30.409599825749726
cycle= 5 E= -17.8093838547296  delta_E= -2.9e-05  |g|= 0.00218  |ddm|= 0.0189
    CPU time for cycle= 5     85.64 sec, wall time      0.68 sec
  HOMO = -0.355284652964687  LUMO = 0.0989931867075294
  mo_energy =
[-1.04350031 -0.87078545 -0.60869078 -0.59253509 -0.52962584 -0.45892467
 -0.35528465  0.09899319  0.13729049  0.16597783  0.16653136  0.2061384
  0.26886346  0.28479861  0.29671513  0.32553781  0.38114066  0.42579692
  0.44409078  0.45512566  0.46265517  0.48785113  0.51243038  0.52985776
  0.53138132  0.56037379  0.65275902  0.7111995   0.74550158  0.76353172
  0.78109925  0.84291752  0.85660564  0.86019153  0.86841516  0.87189394
  0.94991457  0.96697477  0.97773358  0.98528554  1.10918675  1.11248373
  1.11968155  1.1481612   1.16236839  1.19592863  1.26425824  1.3015022
  1.33475484  1.38207542  1.44321402  1.44406368  1.4687865   1.47714953
  1.53939311  1.54768961  1.56165088  1.62704649  1.64324515  1.7101707
  1.71175649  1.84313847  1.93434441  1.94404913  2.05560588  2.06243116
  2.08503383  2.1005337   2.15095122  2.15156874  2.19727815  2.23845701
  2.25780295  2.29329868  2.30093324  2.34086694  2.39211845  2.448903
  2.48471113  2.50560394  2.5157508   2.51610736  2.57061205  2.6098173
  2.62697347  2.63715586  2.66628966  2.71200936  2.77673455  2.79292522
  2.85756997  2.87631531  2.93850818  2.95038266  2.95678086  2.99953541
  3.0605608   3.08369624  3.10702921  3.16356103  3.29743308  3.31606625
  3.34866045  3.35120817  3.38011214  3.42522067  3.46803359  3.51888441
  3.57640047  3.60829819  3.62886697  3.65256087  3.66309033  3.67583701
  3.79085864  3.81294757  3.86590737  3.88459878  3.91457002  3.9415441
  3.95041698  4.02376103  4.06340084  4.0996991   4.18126575  4.18825953
  4.19645348  4.21648925  4.25688354  4.48022571  4.51419971  4.73651974
  4.76696166  4.882688    5.04831673  5.55572725  5.65757991  5.6791874
  5.71467881  5.77221197  5.77598921  6.03752268  6.08904676  6.09307405
  6.19258033  6.25236685  6.25471603  6.28527565  6.29879296  6.30893492
  6.3218151   6.45162173  6.46663788  6.51951832  6.53573177  6.55980733
  6.5683892   6.68510821  6.70994531  6.72266328  6.7664534   6.78006861
  6.92147309  6.99175377  7.01581022  7.05436949  7.09896987  7.33530699
  7.37237272  7.45115238  7.4638283   7.48606652  7.50768375  7.66151262
  7.74796807  7.75667523  7.84644076  7.87835024  7.87861421  7.952384
  8.0315825   8.04107405  8.07929798  8.1011855   8.11483184  8.17823455
  8.2999743   8.31803735  8.34183104  8.42061432  8.58864986  8.6489223
  8.65364711  8.68323666  8.69220797  8.74436255  8.7799441   8.78714569
  8.81884827  8.82772995  8.83643106  8.94410387  9.07245281  9.09302862
  9.18081234  9.21520765  9.37089562  9.39208747  9.43266261  9.43666146
  9.58011894  9.63552336  9.6948775  10.39548991 10.44871617 10.45303735
 10.65530804 10.66346446 10.66826265 10.71208168 10.73081161 10.94659362
 10.97040812 11.19602495 12.89598685 12.90122142 15.45206292 20.73340595]
E1 = -69.74085611176545  E_coul = 30.41143270486364
cycle= 6 E= -17.8093871858618  delta_E= -3.33e-06  |g|= 0.000553  |ddm|= 0.00719
    CPU time for cycle= 6     80.60 sec, wall time      0.65 sec
  HOMO = -0.355334037291926  LUMO = 0.099016813107353
  mo_energy =
[-1.04345749 -0.87079042 -0.60860353 -0.59246514 -0.52956032 -0.45896553
 -0.35533404  0.09901681  0.13727812  0.16600134  0.16657572  0.2061376
  0.26887587  0.28481579  0.29676943  0.32554282  0.38113137  0.42578774
  0.44409031  0.45511662  0.46267875  0.48785434  0.51249854  0.52989563
  0.53137641  0.56038631  0.65276583  0.7112239   0.74551747  0.76354415
  0.78110535  0.84291759  0.85661508  0.86020308  0.86843351  0.87194995
  0.94994717  0.96702212  0.97774486  0.98530921  1.10923278  1.11249572
  1.11971787  1.14821775  1.16237946  1.19593094  1.26425349  1.30153372
  1.3348077   1.38207935  1.44321723  1.44407253  1.4688074   1.47716048
  1.53936787  1.54767823  1.56160773  1.6270214   1.64322898  1.71012441
  1.71174366  1.84316426  1.93440906  1.94409182  2.05564881  2.06248993
  2.08511624  2.10058951  2.15101841  2.15161008  2.19734182  2.23848398
  2.25786067  2.29335083  2.30099486  2.3409245   2.39210991  2.44892051
  2.48478134  2.50561191  2.51577593  2.51613901  2.5706505   2.60989113
  2.62702396  2.63718648  2.66632672  2.71203591  2.77676589  2.79295904
  2.85761912  2.87633869  2.93855637  2.95039133  2.95680569  2.99956265
  3.06060136  3.08369021  3.10709152  3.16359739  3.2974526   3.3160977
  3.3487175   3.35122778  3.38017193  3.42526788  3.4680711   3.51896034
  3.57642158  3.60833371  3.62889266  3.6525895   3.6631361   3.6758589
  3.7908802   3.81295537  3.86589671  3.88458776  3.91456726  3.94150801
  3.95037676  4.02376972  4.06338694  4.09969303  4.18129175  4.18824892
  4.19651462  4.21655244  4.25688078  4.48024689  4.51421772  4.73652057
  4.76694551  4.88273999  5.04835502  5.55581668  5.65762682  5.67928275
  5.7147697   5.77231195  5.77613878  6.03761873  6.08912791  6.09317278
  6.1926231   6.25245164  6.25478106  6.28530098  6.29886259  6.30903038
  6.32187553  6.45169463  6.46666693  6.51959166  6.53584562  6.55991845
  6.5684294   6.68519307  6.71004505  6.72273233  6.76649671  6.78013519
  6.92156207  6.99183416  7.01586169  7.05446042  7.09904272  7.33536789
  7.37247535  7.45123714  7.46392804  7.48615913  7.50775558  7.66160267
  7.74803494  7.75673444  7.84651241  7.87843487  7.8786545   7.95247023
  8.0316153   8.04112734  8.07939238  8.10130737  8.11485726  8.17829557
  8.30006105  8.31811994  8.34189443  8.42069649  8.58876535  8.64900381
  8.65367423  8.68325345  8.69234771  8.74439468  8.78002371  8.78722863
  8.81891779  8.82777922  8.83650333  8.9441914   9.07250407  9.09312761
  9.18083229  9.21526673  9.37100365  9.39212146  9.43277965  9.43667619
  9.58020768  9.63556624  9.69485209 10.39556874 10.44876246 10.45311561
 10.6553857  10.66348246 10.66836798 10.71213908 10.73089173 10.94664203
 10.97045809 11.19610091 12.8959858  12.90133156 15.45206987 20.73349216]
E1 = -69.74044568718908  E_coul = 30.411022018228998
cycle= 7 E= -17.8093874479201  delta_E= -2.62e-07  |g|= 0.00012  |ddm|= 0.00235
    CPU time for cycle= 7     99.81 sec, wall time      0.82 sec
  HOMO = -0.35535214647788  LUMO = 0.0990177433819619
  mo_energy =
[-1.04347113 -0.87079222 -0.60859945 -0.59245352 -0.52956689 -0.45896695
 -0.35535215  0.09901774  0.13727328  0.16600308  0.16657878  0.20613588
  0.26887647  0.28481713  0.29676837  0.32553386  0.38112968  0.42578186
  0.4440924   0.45510439  0.46267851  0.48784891  0.51250253  0.52989862
  0.53137576  0.56038039  0.65276481  0.71121761  0.74551934  0.76354304
  0.78110769  0.84292019  0.8566088   0.86020115  0.86843552  0.87195055
  0.94994672  0.96702378  0.97774814  0.98531222  1.10923589  1.11249514
  1.11971667  1.14821995  1.16237756  1.19592955  1.26424467  1.30153722
  1.33480836  1.38206681  1.44320589  1.44406519  1.46879914  1.47715921
  1.53936021  1.54766808  1.5616104   1.6270179   1.64322213  1.71012589
  1.71174112  1.84315662  1.93440777  1.94408718  2.05565448  2.06249319
  2.08511142  2.10058579  2.1510173   2.15160625  2.1973477   2.23848297
  2.25786297  2.29334654  2.30099808  2.34092684  2.39211282  2.44891699
  2.48478421  2.50561049  2.51577768  2.51613913  2.57065598  2.60989256
  2.62702383  2.63718625  2.66632431  2.71203776  2.77676882  2.79296413
  2.85761531  2.87633796  2.93855729  2.9503908   2.95679906  2.99956554
  3.06060192  3.08368798  3.10709841  3.163592    3.29744573  3.31609096
  3.34871912  3.35122597  3.38017394  3.42526995  3.46807211  3.51895677
  3.57640883  3.60832103  3.62888165  3.65257329  3.66313005  3.67585245
  3.79088283  3.81295247  3.86589706  3.88458323  3.91456575  3.9415096
  3.95038303  4.02377442  4.06338475  4.09969039  4.18128924  4.18825724
  4.19651707  4.21655547  4.25687774  4.48023917  4.51420654  4.73651219
  4.76693376  4.88273471  5.0483487   5.5558199   5.65763623  5.67928751
  5.71477792  5.77231453  5.77613887  6.0376226   6.08913737  6.09317984
  6.19261842  6.25245357  6.2547842   6.28531076  6.29886023  6.30903764
  6.32188619  6.45170011  6.46667289  6.51959568  6.53584697  6.55992489
  6.56843895  6.68520057  6.7100525   6.72273802  6.76648828  6.78013472
  6.92156298  6.99183432  7.01586968  7.05446774  7.09903757  7.33535917
  7.37247467  7.45123818  7.46393656  7.48616276  7.50775898  7.6616119
  7.74804602  7.75674542  7.8465211   7.87844111  7.87866341  7.95247806
  8.03162499  8.04113849  8.07939966  8.10131498  8.11486828  8.17830476
  8.30006546  8.31811769  8.34190196  8.42069744  8.58876478  8.6490096
  8.65368401  8.68326421  8.69235322  8.74440254  8.78003071  8.78723226
  8.8189281   8.82779059  8.8365111   8.94418756  9.07250364  9.09312404
  9.18083116  9.21526982  9.37099814  9.39213099  9.43278465  9.43668681
  9.58021312  9.63557282  9.69485113 10.39557626 10.44877357 10.45312407
 10.65539514 10.6634936  10.66837482 10.71215252 10.73090285 10.94664999
 10.9704679  11.19609687 12.89600055 12.90133862 15.45205979 20.73351162]
E1 = -69.74051642182275  E_coul = 30.41109274060982
cycle= 8 E= -17.8093874601729  delta_E= -1.23e-08  |g|= 3.18e-05  |ddm|= 0.000689
    CPU time for cycle= 8     80.16 sec, wall time      0.70 sec
  HOMO = -0.355350122630853  LUMO = 0.0990196596370442
  mo_energy =
[-1.04346425 -0.87078939 -0.60859457 -0.59244712 -0.52956264 -0.45896246
 -0.35535012  0.09901966  0.13727318  0.16600566  0.16658106  0.2061356
  0.26887759  0.2848203   0.29677103  0.3255364   0.38113043  0.42578584
  0.44409533  0.45510653  0.46268069  0.48785027  0.51250594  0.52990216
  0.53137609  0.56038503  0.65276675  0.71121957  0.74552066  0.76354529
  0.78111108  0.84292197  0.85660994  0.86020445  0.86843788  0.87195384
  0.94994933  0.96702667  0.97775019  0.98531457  1.10923948  1.11249887
  1.11972043  1.14822262  1.16238032  1.19593055  1.2642459   1.30154097
  1.33481149  1.38207105  1.44321044  1.44406888  1.46880322  1.47716289
  1.53936301  1.54767277  1.56161224  1.62702     1.64322592  1.71012882
  1.71174466  1.84315957  1.93441315  1.94409208  2.05565861  2.06249627
  2.08511742  2.10059202  2.15102198  2.15161109  2.19735168  2.23848567
  2.25786745  2.2933501   2.30100082  2.34092939  2.39211586  2.44891936
  2.48478674  2.50561174  2.5157804   2.51614205  2.57065875  2.60989672
  2.62702751  2.63718638  2.66632731  2.71203951  2.77677262  2.7929667
  2.85761814  2.87634283  2.93856001  2.95039407  2.95680027  2.99957057
  3.06060391  3.08369016  3.10710245  3.16359755  3.29744993  3.31609561
  3.34872339  3.35122871  3.38017767  3.42527435  3.46807742  3.51896129
  3.57641489  3.60832774  3.62888766  3.65257975  3.66313559  3.67586134
  3.79088807  3.81295812  3.86590225  3.88458766  3.91457091  3.94151488
  3.95038636  4.02377909  4.06339015  4.09969454  4.1812952   4.18826164
  4.19652191  4.21656016  4.25688212  4.480244    4.51421415  4.73651816
  4.76693757  4.88273969  5.04835202  5.55582643  5.65764023  5.67929117
  5.71478338  5.77232206  5.77614574  6.03762907  6.08914283  6.09318345
  6.19261854  6.25245465  6.25478761  6.28531492  6.29886114  6.3090406
  6.32188939  6.4517047   6.46667743  6.51959764  6.53585185  6.55992838
  6.56844352  6.68520436  6.71005687  6.72274196  6.76648695  6.78013597
  6.92156574  6.991836    7.01587454  7.05447293  7.09903834  7.3353569
  7.37247088  7.45123917  7.46394184  7.48616884  7.5077606   7.66161625
  7.7480488   7.7567485   7.84652399  7.87844443  7.87866764  7.95248172
  8.03162854  8.04114185  8.07940193  8.10131734  8.11487313  8.17830812
  8.30006537  8.31811365  8.3419043   8.4206956   8.58876142  8.64901056
  8.65368819  8.68326597  8.69235468  8.74440571  8.78003353  8.78723157
  8.81893143  8.82779402  8.8365121   8.94418512  9.07250662  9.09312028
  9.18083802  9.21527295  9.37099413  9.39213451  9.43278534  9.43669016
  9.58021657  9.63557723  9.69485697 10.39558009 10.44877714 10.45312693
 10.65539701 10.66349768 10.66837697 10.71215584 10.73090548 10.9466524
 10.97047027 11.19609774 12.89600411 12.90133949 15.45206982 20.73351611]
E1 = -69.7405026910095  E_coul = 30.411079008976127
cycle= 9 E= -17.8093874609934  delta_E= -8.2e-10  |g|= 7.5e-06  |ddm|= 0.000172
    CPU time for cycle= 9     77.89 sec, wall time      0.66 sec
  HOMO = -0.355352130050002  LUMO = 0.0990198808192168
  mo_energy =
[-1.04346435 -0.87078936 -0.60859392 -0.59244579 -0.5295629  -0.45896388
 -0.35535213  0.09901988  0.13727291  0.16600608  0.16658154  0.20613465
  0.26887773  0.28482028  0.2967715   0.32553591  0.38112989  0.4257847
  0.44409502  0.45510565  0.46268092  0.48784974  0.51250695  0.52990286
  0.53137542  0.56038463  0.65276653  0.71121906  0.74552049  0.76354523
  0.78111113  0.84292173  0.85660958  0.86020429  0.86843792  0.87195449
  0.94994978  0.96702727  0.97775025  0.98531493  1.10923993  1.112499
  1.11972069  1.14822324  1.1623803   1.19592988  1.26424529  1.30154153
  1.334812    1.38206928  1.44320918  1.44406806  1.46880223  1.47716251
  1.53936137  1.54767114  1.56161068  1.62701832  1.64322455  1.71012755
  1.71174324  1.84315909  1.9344139   1.94409234  2.0556599   2.06249748
  2.08511789  2.10059246  2.15102271  2.15161112  2.19735309  2.23848588
  2.25786822  2.29335032  2.30100167  2.34093015  2.39211489  2.44891919
  2.48478743  2.50561144  2.51578054  2.51614166  2.57065893  2.60989758
  2.62702783  2.63718609  2.66632725  2.71203934  2.77677285  2.79296672
  2.85761812  2.87634289  2.93855984  2.95039347  2.95679941  2.9995706
  3.06060386  3.08368898  3.10710355  3.16359675  3.29744901  3.31609523
  3.34872413  3.35122797  3.38017823  3.42527485  3.46807776  3.51896184
  3.5764131   3.60832638  3.62888694  3.65257787  3.66313472  3.67585915
  3.7908875   3.8129567   3.86590078  3.88458617  3.91456912  3.94151297
  3.95038442  4.02377881  4.06338806  4.09969287  4.18129394  4.18826099
  4.19652277  4.21656096  4.25688055  4.4802427   4.51421146  4.73651516
  4.76693438  4.88273806  5.04834989  5.55582819  5.65764225  5.67929355
  5.71478553  5.77232348  5.77614759  6.03763084  6.08914499  6.09318536
  6.19261813  6.25245567  6.25478879  6.28531628  6.29886137  6.30904291
  6.32189108  6.45170581  6.4666784   6.51959973  6.53585343  6.5599304
  6.56844483  6.68520602  6.71005903  6.72274339  6.76648577  6.78013632
  6.92156656  6.99183667  7.01587621  7.05447447  7.09903788  7.33535505
  7.37246908  7.45123936  7.46394427  7.48617024  7.50776101  7.66161822
  7.74805067  7.75675042  7.84652571  7.87844618  7.87866878  7.95248359
  8.03162998  8.04114342  8.07940371  8.10131939  8.11487437  8.17830953
  8.30006598  8.31811261  8.3419054   8.42069526  8.58876077  8.64901153
  8.65368943  8.6832662   8.69235709  8.74440682  8.78003514  8.78723179
  8.81893323  8.82779626  8.83651361  8.94418299  9.07250404  9.09311885
  9.1808348   9.21527327  9.37099212  9.3921357   9.43278729  9.43669125
  9.58021839  9.63557843  9.69485345 10.39558202 10.4487788  10.45312903
 10.65539939 10.66349941 10.66837956 10.71215801 10.73090794 10.9466546
 10.97047233 11.1960947  12.89600603 12.90134269 15.45206464 20.73352081]
E1 = -69.74050266024359  E_coul = 30.41107897817504
Extra cycle  E= -17.8093874610286  delta_E= -3.52e-11  |g|= 3.11e-06  |ddm|= 3.19e-05
    CPU time for scf_cycle   1151.15 sec, wall time      9.61 sec
    CPU time for SCF   1151.61 sec, wall time      9.62 sec
converged SCF energy = -17.8093874610286
