#INFO: **** input file is /home/nkousuke/lustre/toBeSync/turboRVB/05turbo-genius-development/turbogenius_paper/04data/sanity_checks/03pyscf_HF_turbo_VMC_via_trexio/00open_boundary/results/CH3/pyscf-HF-workflow/run.py ****

from pyscf_wrapper import Pyscf_wrapper

# input variables
pyscf_chkfile="pyscf.chk"
structure_file="CH3.xyz"

# input variables
omp_num_threads=128
charge=0
spin=1
basis="ccecp-ccpvqz"
ecp="ccecp"
scf_method="HF"
dft_xc="NA"
solver_newton=False
MP2_flag=False
CCSD_flag=False
pyscf_output="out.pyscf"
twist_average=False
exp_to_discard=0.0
kpt=[0.0, 0.0, 0.0]
kpt_grid=[1, 1, 1]
smearing_method="fermi"
smearing_sigma=0.0

pyscf_calc=Pyscf_wrapper(
                        structure_file=structure_file,
                        chkfile=pyscf_chkfile,
                        )

pyscf_calc.run_pyscf(
                  omp_num_threads=omp_num_threads,
                  charge=charge,
                  spin=spin,
                  basis=basis,
                  ecp=ecp,
                  scf_method=scf_method,
                  dft_xc=dft_xc,
                  solver_newton=solver_newton,
                  MP2_flag=MP2_flag,
                  CCSD_flag=CCSD_flag,
                  pyscf_output=pyscf_output,
                  twist_average=twist_average,
                  exp_to_discard=exp_to_discard,
                  kpt=kpt,
                  kpt_grid=kpt_grid,
                  smearing_method=smearing_method,
                  smearing_sigma=smearing_sigma
                  )
                #INFO: ******************** input file end ********************


System: uname_result(system='Linux', node='spcc-238', release='5.4.0-66-generic', version='#74-Ubuntu SMP Wed Jan 27 22:54:38 UTC 2021', machine='x86_64', processor='x86_64')  Threads 128
Python 3.7.3 (default, Mar 27 2019, 22:11:17) 
[GCC 7.3.0]
numpy 1.20.1  scipy 1.7.3
Date: Mon Dec 19 18:07:48 2022
PySCF version 2.0.1
PySCF path  /home/nkousuke/application/anaconda3/lib/python3.7/site-packages/pyscf

[CONFIG] conf_file /home/nkousuke/.pyscf_conf.py
[INPUT] verbose = 5
[INPUT] max_memory = 506307.32421875 
[INPUT] num. atoms = 4
[INPUT] num. electrons = 7
[INPUT] charge = 0
[INPUT] spin (= nelec alpha-beta = 2S) = 1
[INPUT] symmetry False subgroup None
[INPUT] Mole.unit = A
[INPUT]  1 C      0.000000000000   0.000000000000   0.000000000000 AA    0.000000000000   0.000000000000   0.000000000000 Bohr
[INPUT]  2 H      0.000000000000   1.076100000000   0.000000000000 AA    0.000000000000   2.033534282644   0.000000000000 Bohr
[INPUT]  3 H      0.931930000000  -0.538050000000   0.000000000000 AA    1.761092467266  -1.016767141322   0.000000000000 Bohr
[INPUT]  4 H     -0.931930000000  -0.538050000000   0.000000000000 AA   -1.761092467266  -1.016767141322   0.000000000000 Bohr
[INPUT] ---------------- BASIS SET ---------------- 
[INPUT] l, kappa, [nprim/nctr], expnt,             c_1 c_2 ...
[INPUT] C
[INPUT] 0    0    [9    /1   ]  13.073594         0.0051583
                                6.541187          0.0603424
                                4.573411          -0.1978471
                                1.637494          -0.081034
                                0.819297          0.2321726
                                0.409924          0.2914643
                                0.2313            0.4336405
                                0.102619          0.213194
                                0.051344          0.0049848
[INPUT] 0    0    [1    /1   ]  0.846879             1
[INPUT] 0    0    [1    /1   ]  0.269659             1
[INPUT] 0    0    [1    /1   ]  0.109576             1
[INPUT] 1    0    [9    /1   ]  9.934169          0.0209076
                                3.886955          0.0572698
                                1.871016          0.1122682
                                0.935757          0.2130082
                                0.468003          0.2835815
                                0.239473          0.3011207
                                0.117063          0.2016934
                                0.058547          0.0453575
                                0.029281          0.0029775
[INPUT] 1    0    [1    /1   ]  0.804681             1
[INPUT] 1    0    [1    /1   ]  0.313254             1
[INPUT] 1    0    [1    /1   ]  0.105389             1
[INPUT] 2    0    [1    /1   ]  2.01376              1
[INPUT] 2    0    [1    /1   ]  0.684884             1
[INPUT] 2    0    [1    /1   ]  0.240171             1
[INPUT] 3    0    [1    /1   ]  0.457302             1
[INPUT] 3    0    [1    /1   ]  1.32493              1
[INPUT] 4    0    [1    /1   ]  1.03418              1
[INPUT] H
[INPUT] 0    0    [8    /1   ]  23.843185         0.0041149
                                10.212443         0.0104644
                                4.374164          0.0280111
                                1.873529          0.0758862
                                0.802465          0.1821062
                                0.343709          0.3485214
                                0.147217          0.3782313
                                0.063055          0.1164241
[INPUT] 0    0    [1    /1   ]  0.081856             1
[INPUT] 0    0    [1    /1   ]  0.233254             1
[INPUT] 0    0    [1    /1   ]  0.664673             1
[INPUT] 1    0    [1    /1   ]  0.284469             1
[INPUT] 1    0    [1    /1   ]  0.847159             1
[INPUT] 1    0    [1    /1   ]  2.522868             1
[INPUT] 2    0    [1    /1   ]  0.665279             1
[INPUT] 2    0    [1    /1   ]  2.048739             1
[INPUT] 3    0    [1    /1   ]  1.42146              1

nuclear repulsion = 6.75280001950513
number of shells = 44
number of NR pGTOs = 197
number of NR cGTOs = 144
basis = ccecp-ccpvqz
ecp = ccecp
CPU time:         6.07


******** <class 'pyscf.scf.rohf.ROHF'> ********
method = ROHF-RHF
initial guess = minao
damping factor = 0
level_shift factor = 0
DIIS = <class 'pyscf.scf.diis.CDIIS'>
diis_start_cycle = 1
diis_space = 8
SCF conv_tol = 1e-09
SCF conv_tol_grad = None
SCF max_cycles = 200
direct_scf = True
direct_scf_tol = 1e-13
chkfile to save SCF result = pyscf.chk
max_memory 506307 MB (current use 106 MB)
num. doubly occ = 3  num. singly occ = 1
Set gradient conv threshold to 3.16228e-05
E1 = -22.554503284250035  Ecoul = 9.004187491533825
init E= -6.79751577321109
cond(S) = 54425.83959801498
    CPU time for initialize scf    156.60 sec, wall time      1.48 sec
  HOMO = -0.159467046831666  LUMO = 0.0860323894269841
                  Roothaan           | alpha              | beta
  Highest 2-occ =  -0.51549304203349 | -0.515493042033491 | -0.515493042033491
  Lowest 0-occ =  0.0860323894269841 | 0.0860323894269894 | 0.0860323894269894
  1-occ =         -0.159467046831666 | -0.159467046831662 | -0.159467046831662
  Roothaan mo_energy =
[-1.17794877 -0.51549304 -0.51549304 -0.15946705  0.08603239  0.16237207
  0.16237207  0.27441679  0.2744168   0.34863866  0.35594425  0.41486093
  0.47529048  0.47529049  0.55641662  0.55641663  0.73897817  0.78670557
  0.79834273  0.79834273  0.85605114  0.91500547  0.91500549  1.00672751
  1.00672751  1.08238957  1.13972787  1.13972787  1.24786068  1.46326507
  1.46326508  1.5861243   1.83681059  1.88057701  1.88057704  1.88688537
  1.88688539  1.9511396   1.96853545  2.00188828  2.0018883   2.03787601
  2.03787601  2.22551958  2.24235485  2.45779455  2.4577946   2.50919839
  2.5091984   2.61579467  2.63788904  2.63788904  2.66529343  2.70377347
  2.70377348  2.92902792  3.00043326  3.00043331  3.00376095  3.29088779
  3.2908878   3.29177503  3.57088781  3.57088782  3.65865578  3.65865582
  3.69653729  3.84354176  4.02684312  4.02684319  4.10273824  5.29721581
  5.370888    5.370888    5.45882966  5.4916683   5.53109533  5.53109535
  5.68927863  5.68927865  5.70823316  5.76218041  5.76218041  5.8047793
  5.94735958  5.94735964  6.23974309  6.24897462  6.29320346  6.3365931
  6.33659311  6.43279583  6.43279586  6.7191332   6.79973155  6.79973158
  6.82747107  7.00564954  7.00564954  7.25320804  7.25320807  7.50558671
  7.50558672  7.57132608  7.57132628  7.72947307  7.82291726  7.85876355
  7.8587636   7.97857102  7.97857106  8.00050395  8.00397085  8.00397088
  8.26920235  8.37524506  8.47177299  8.47177303  8.52352933  8.52352935
  8.53493692  8.58688852  8.5868886   8.61305451  8.91394112  8.91394117
  9.17757745  9.25802259  9.64361325  9.74363216  9.7436323  10.09937913
 10.3386775  10.33867773 10.41012758 10.46774177 10.46774188 10.50988077
 10.74261118 11.54308889 11.54308915 12.83821987 12.83822016 20.3348712 ]
E1 = -23.33121084278706  Ecoul = 9.381173656053697
cycle= 1 E= -7.19723716722824  delta_E= -0.4  |g|= 0.152  |ddm|= 2.31
    CPU time for cycle= 1    113.06 sec, wall time      1.00 sec
  HOMO = -0.125910230493333  LUMO = 0.11307998380291
                  Roothaan           | alpha              | beta
  Highest 2-occ =  -0.58618237919584 | -0.596310591511624 | -0.576054166880059
  Lowest 0-occ =    0.11307998380291 |  0.109824033457715 |  0.116335934148105
  1-occ =         -0.125910230493333 |  -0.37737310507268 |  0.136183350542183
  Roothaan mo_energy =
[-0.92658997 -0.58618238 -0.58618238 -0.12591023  0.11307998  0.17254167
  0.17254168  0.29023204  0.29023205  0.37969481  0.38510718  0.47494763
  0.53173585  0.53173586  0.57969781  0.57969782  0.74825828  0.80788434
  0.82052103  0.82052103  0.87434705  0.9323192   0.93231921  1.018816
  1.01881601  1.10945673  1.16852418  1.16852418  1.29672595  1.50224904
  1.50224905  1.65888125  1.86928854  1.93111525  1.93111528  1.93908505
  1.93908507  2.00343413  2.0098872   2.05363867  2.0536387   2.0936881
  2.09368811  2.25318087  2.29430658  2.49526438  2.49526443  2.52932162
  2.52932162  2.63908446  2.66577844  2.66577845  2.70824648  2.72426926
  2.72426928  2.95351287  3.02382782  3.02382787  3.0242105   3.32784416
  3.32784417  3.33402726  3.62666503  3.62666503  3.71079336  3.71079341
  3.76132679  3.90216368  4.08624678  4.08624685  4.14649498  5.39546994
  5.46124222  5.46124223  5.54269101  5.57501676  5.62836721  5.62836723
  5.77468553  5.77468556  5.80495699  5.85570473  5.85570474  5.90088313
  6.02436133  6.02436138  6.30553087  6.33658192  6.3438395   6.38795384
  6.38795386  6.50001158  6.50001161  6.80166221  6.8983894   6.89838943
  6.89904706  7.06755118  7.06755118  7.35026519  7.35026524  7.56158487
  7.56158489  7.62485987  7.62486007  7.76910512  7.84930652  7.8816511
  7.88165114  8.0289462   8.02894621  8.0299471   8.02994714  8.03206435
  8.34165993  8.39294992  8.52645765  8.52645768  8.55995071  8.56475304
  8.56475307  8.69073627  8.69073636  8.69532516  8.97584236  8.97584242
  9.25079568  9.3168441   9.72106869  9.80223971  9.80223987 10.19013452
 10.40982291 10.40982315 10.49432989 10.55252427 10.55252439 10.60070517
 10.82420095 11.63103457 11.63103483 12.93697289 12.93697318 20.49190362]
E1 = -23.434402708879233  Ecoul = 9.47626114871484
cycle= 2 E= -7.20534154065927  delta_E= -0.0081  |g|= 0.0381  |ddm|= 0.225
    CPU time for cycle= 2     90.45 sec, wall time      0.78 sec
  HOMO = -0.102936243610877  LUMO = 0.11784973159657
                  Roothaan           | alpha              | beta
  Highest 2-occ = -0.570430633636282 | -0.584237380096252 | -0.563690183185844
  Lowest 0-occ =    0.11784973159657 |  0.113756802667642 |  0.119850131786683
  1-occ =         -0.102936243610877 | -0.370564504672853 |  0.154783263648795
  Roothaan mo_energy =
[-0.90257927 -0.57043064 -0.57043063 -0.10293624  0.11784973  0.17583876
  0.17583877  0.29591555  0.29591556  0.38370362  0.38542513  0.48881824
  0.54548846  0.54548847  0.59070383  0.59070384  0.75540792  0.81517177
  0.82952102  0.82952102  0.8812798   0.93892747  0.93892749  1.02525135
  1.02525136  1.11735646  1.17843523  1.17843524  1.31291115  1.51537572
  1.51537572  1.67463685  1.88344449  1.94553363  1.94553366  1.95619056
  1.95619058  2.01785937  2.02209597  2.0694814   2.06948142  2.1090627
  2.10906271  2.26652307  2.31021354  2.51047255  2.51047259  2.54247886
  2.54247886  2.65308831  2.68091908  2.68091909  2.72338547  2.73657844
  2.73657846  2.9676438   3.03613935  3.03613941  3.03729142  3.34303186
  3.34303187  3.3505202   3.64656081  3.64656081  3.72870273  3.72870278
  3.78362781  3.92068863  4.1069185   4.10691857  4.16436308  5.41955273
  5.48573825  5.48573826  5.56516982  5.59943564  5.65356932  5.65356933
  5.7979859   5.79798593  5.8287894   5.87914306  5.87914307  5.9282495
  6.04971641  6.04971646  6.32879469  6.35770174  6.37243086  6.40952623
  6.40952624  6.52332088  6.52332091  6.828077    6.92297898  6.927223
  6.92722303  7.09214415  7.09214415  7.3768998   7.37689985  7.58537079
  7.5853708   7.64744776  7.64744796  7.79163568  7.87065619  7.90390538
  7.90390543  8.05046063  8.05046064  8.05407372  8.05407377  8.0555639
  8.36893573  8.41257817  8.55378039  8.55378042  8.5813273   8.59008244
  8.59008247  8.72159894  8.72159903  8.7222898   9.00520615  9.00520621
  9.2773785   9.34539791  9.75314209  9.8297564   9.82975656 10.22173033
 10.43764812 10.43764836 10.52345523 10.58276167 10.5827618  10.63355771
 10.85337638 11.66225293 11.6622532  12.97016731 12.9701676  20.52735977]
E1 = -23.412827894123744  Ecoul = 9.45415760909445
cycle= 3 E= -7.20587026552417  delta_E= -0.000529  |g|= 0.00959  |ddm|= 0.0648
    CPU time for cycle= 3    108.96 sec, wall time      0.88 sec
  HOMO = -0.110414605772639  LUMO = 0.117187599181207
                  Roothaan           | alpha              | beta
  Highest 2-occ = -0.576096286917182 | -0.587656000924323 | -0.567156691591834
  Lowest 0-occ =   0.117187599181207 |  0.113929027427876 |  0.120112919046766
  1-occ =         -0.110414605772639 | -0.375040059594397 |  0.151852193495332
  Roothaan mo_energy =
[-0.90853283 -0.57609629 -0.57609629 -0.11041461  0.1171876   0.17529727
  0.17529728  0.29479819  0.2947982   0.38254432  0.38377309  0.4861287
  0.54227523  0.54227524  0.58822561  0.58822562  0.75446364  0.81316735
  0.82741099  0.82741099  0.87983127  0.93740179  0.93740181  1.02401385
  1.02401385  1.11526969  1.17607066  1.17607066  1.30977735  1.51244211
  1.51244212  1.66724954  1.88070405  1.94079307  1.9407931   1.95153048
  1.9515305   2.01320646  2.01822697  2.06489985  2.06489987  2.10400751
  2.10400751  2.26436655  2.30558604  2.50732169  2.50732174  2.54080625
  2.54080626  2.65131959  2.67867457  2.67867457  2.71984119  2.73480929
  2.73480931  2.96535826  3.03408614  3.0340862   3.03534802  3.33966683
  3.33966684  3.34699636  3.64201844  3.64201844  3.72390775  3.72390779
  3.77820351  3.91507772  4.10180271  4.10180278  4.16116876  5.40946114
  5.47778162  5.47778163  5.5571802   5.59264857  5.64491178  5.64491179
  5.79004756  5.7900476   5.81816462  5.86970869  5.86970869  5.92056843
  6.04334087  6.04334092  6.32363738  6.35482297  6.36466113  6.40557856
  6.40557858  6.51776895  6.51776898  6.82055384  6.91711152  6.91923048
  6.91923051  7.08718663  7.08718664  7.36729262  7.36729267  7.58104271
  7.58104272  7.64330889  7.64330909  7.78837199  7.86878554  7.90227955
  7.90227959  8.04819428  8.04819429  8.04948855  8.04948859  8.05328198
  8.36389599  8.41091414  8.55050323  8.55050326  8.57954876  8.58755899
  8.58755902  8.71303093  8.71303102  8.71462275  9.00140709  9.00140715
  9.27190598  9.34171197  9.7486129   9.82568825  9.82568841 10.21466469
 10.43193703 10.43193727 10.51624564 10.5763843  10.57638442 10.62708277
 10.84690513 11.65592116 11.65592143 12.96225523 12.96225552 20.51118323]
E1 = -23.427438241267744  Ecoul = 9.468738396644465
cycle= 4 E= -7.20589982511815  delta_E= -2.96e-05  |g|= 0.00178  |ddm|= 0.0174
    CPU time for cycle= 4     94.98 sec, wall time      0.79 sec
  HOMO = -0.109665222029273  LUMO = 0.117278484288033
                  Roothaan           | alpha              | beta
  Highest 2-occ = -0.575677189885225 | -0.585654607795527 | -0.565120185261184
  Lowest 0-occ =   0.117278484288033 |  0.114209426397701 |   0.12039348951843
  1-occ =         -0.109665222029273 | -0.373318739152759 |  0.154736825459216
  Roothaan mo_energy =
[-0.90780545 -0.57567719 -0.57567719 -0.10966522  0.11727848  0.17537054
  0.17537055  0.29485988  0.29485989  0.38252499  0.3838556   0.48635481
  0.54259043  0.54259044  0.58840419  0.5884042   0.75450667  0.81332056
  0.82754811  0.82754812  0.87987638  0.9375035   0.93750352  1.02409254
  1.02409254  1.11543818  1.17630549  1.17630549  1.31002173  1.51267544
  1.51267544  1.66775556  1.88085376  1.94115772  1.94115775  1.95185267
  1.95185268  2.01352782  2.01846299  2.06521814  2.06521816  2.10437129
  2.10437129  2.26449659  2.30598929  2.50755867  2.50755871  2.54097145
  2.54097146  2.65146989  2.67887994  2.67887995  2.72015818  2.73493522
  2.73493524  2.96553772  3.03424305  3.0342431   3.03549185  3.33992403
  3.33992404  3.34726893  3.64243542  3.64243542  3.72429554  3.72429558
  3.77870749  3.91554451  4.10221999  4.10222006  4.16135556  5.41046494
  5.47841944  5.47841945  5.55779441  5.59312678  5.64560995  5.64560996
  5.79069391  5.79069395  5.81918657  5.87052077  5.87052077  5.921159
  6.04390205  6.04390211  6.32406765  6.35502943  6.3653016   6.40588045
  6.40588046  6.51821672  6.51821675  6.82124417  6.91756789  6.91993546
  6.91993549  7.08758103  7.08758104  7.36825702  7.36825706  7.58141585
  7.58141586  7.6436488   7.643649    7.78870455  7.86898743  7.90246961
  7.90246966  8.04847347  8.04847349  8.04996507  8.04996511  8.05355427
  8.36427204  8.41112084  8.55076365  8.55076368  8.57973183  8.58778002
  8.58778004  8.71381921  8.71381929  8.71536096  9.00170274  9.0017028
  9.27230698  9.34201176  9.74891566  9.82601174  9.8260119  10.21534441
 10.43243789 10.43243813 10.51693734 10.57691634 10.57691647 10.62762697
 10.84744759 11.65641842 11.65641868 12.9630244  12.96302469 20.51315956]
E1 = -23.425620849827965  Ecoul = 9.466919677903906
cycle= 5 E= -7.20590115241893  delta_E= -1.33e-06  |g|= 0.000186  |ddm|= 0.00346
    CPU time for cycle= 5     97.17 sec, wall time      0.78 sec
  HOMO = -0.109639660012174  LUMO = 0.117289541534521
                  Roothaan           | alpha              | beta
  Highest 2-occ = -0.575632486454042 | -0.585901194039618 | -0.565368509572843
  Lowest 0-occ =   0.117289541534521 |  0.114194840631112 |  0.120380604758798
  1-occ =         -0.109639660012174 | -0.373679637523623 |  0.154448891910744
  Roothaan mo_energy =
[-0.90778314 -0.57563249 -0.57563249 -0.10963966  0.11728954  0.17538816
  0.17538817  0.29487531  0.29487532  0.38245008  0.38387515  0.48637534
  0.54262929  0.5426293   0.58842943  0.58842944  0.75452891  0.81334089
  0.82757634  0.82757634  0.87990392  0.93752273  0.93752274  1.02411426
  1.02411427  1.11545002  1.17633839  1.17633839  1.31006894  1.51271244
  1.51271244  1.66776596  1.88089272  1.94118844  1.94118847  1.95189114
  1.95189115  2.0135513   2.01849388  2.06525046  2.06525048  2.10439655
  2.10439655  2.2645365   2.30602676  2.50759794  2.50759798  2.54102217
  2.54102218  2.65152007  2.67893233  2.67893233  2.72019468  2.73497725
  2.73497726  2.96558439  3.03428631  3.03428637  3.03553598  3.33996566
  3.33996568  3.34731656  3.64248223  3.64248223  3.72434449  3.72434454
  3.7787586   3.91558771  4.10226761  4.10226768  4.16140152  5.41048892
  5.478463    5.47846301  5.5578359   5.59317556  5.6456502   5.64565021
  5.79073769  5.79073773  5.81922456  5.87055794  5.87055795  5.92120198
  6.04394927  6.04394932  6.3241248   6.35509167  6.36535431  6.40594023
  6.40594025  6.51826934  6.51826936  6.82129785  6.91762236  6.91998159
  6.91998162  7.08764421  7.08764421  7.36830217  7.36830221  7.58148141
  7.58148142  7.643713    7.64371319  7.78877839  7.86906431  7.90255118
  7.90255123  8.04855076  8.04855077  8.05003551  8.05003556  8.05363741
  8.36434144  8.41119424  8.55084427  8.5508443   8.57980723  8.58786172
  8.58786175  8.71386718  8.71386726  8.7154156   9.00179046  9.00179051
  9.27237414  9.34209888  9.74899654  9.82608628  9.82608644 10.21540971
 10.43251234 10.43251259 10.51700654 10.57698109 10.57698121 10.62770134
 10.84750918 11.65648557 11.65648583 12.96308563 12.96308592 20.51316108]
E1 = -23.425582287534017  Ecoul = 9.46688108425382
cycle= 6 E= -7.20590118377507  delta_E= -3.14e-08  |g|= 2.65e-05  |ddm|= 0.000738
    CPU time for cycle= 6     87.94 sec, wall time      0.70 sec
  HOMO = -0.109638480337087  LUMO = 0.117287436795548
                  Roothaan           | alpha              | beta
  Highest 2-occ = -0.575632527581017 |  -0.58589918865068 | -0.565365054985166
  Lowest 0-occ =   0.117287436795548 |  0.114194888477171 |  0.120380801831303
  1-occ =         -0.109638480337087 | -0.373722329133371 |  0.154452579150687
  Roothaan mo_energy =
[-0.9077862  -0.57563253 -0.57563253 -0.10963848  0.11728744  0.17538773
  0.17538773  0.29487272  0.29487272  0.38244145  0.38387242  0.48637091
  0.54262818  0.54262819  0.58842777  0.58842778  0.75452644  0.81333849
  0.82757376  0.82757376  0.87989813  0.93752011  0.93752013  1.024112
  1.024112    1.11544738  1.17633708  1.17633709  1.31006478  1.51270937
  1.51270937  1.66775879  1.88088878  1.94118481  1.94118484  1.95188676
  1.95188678  2.01354637  2.01848935  2.0652458   2.06524582  2.10439184
  2.10439185  2.26453253  2.30602305  2.50759439  2.50759444  2.54101979
  2.5410198   2.65151729  2.67892997  2.67892998  2.72019143  2.7349742
  2.73497422  2.96558132  3.03428307  3.03428312  3.03553291  3.33996202
  3.33996203  3.34731252  3.64247851  3.64247851  3.72434073  3.72434078
  3.77875477  3.915584    4.10226333  4.1022634   4.16139673  5.4104851
  5.47845737  5.47845738  5.55783082  5.59316901  5.64564422  5.64564423
  5.79073273  5.79073276  5.81922237  5.87055345  5.87055346  5.92119521
  6.04394463  6.04394469  6.32412043  6.35508715  6.36534875  6.40593588
  6.4059359   6.51826435  6.51826438  6.82129417  6.91761691  6.91997619
  6.91997622  7.08763978  7.08763979  7.36829911  7.36829916  7.58147766
  7.58147767  7.64370889  7.64370908  7.78877607  7.86906191  7.90254944
  7.90254948  8.04854936  8.04854937  8.05003303  8.05003308  8.05363556
  8.36433642  8.4111925   8.55084043  8.55084046  8.57980491  8.58785858
  8.5878586   8.71386204  8.71386213  8.71541272  9.00178663  9.00178669
  9.27236892  9.34209527  9.74899151  9.82608237  9.82608253 10.21540582
 10.43250857 10.43250881 10.51700341 10.57697616 10.57697628 10.62769664
 10.84750408 11.65648019 11.65648045 12.96308161 12.9630819  20.51316094]
E1 = -23.425577027831253  Ecoul = 9.466875823974444
cycle= 7 E= -7.20590118435168  delta_E= -5.77e-10  |g|= 3.42e-06  |ddm|= 9.73e-05
    CPU time for cycle= 7     91.14 sec, wall time      0.73 sec
  HOMO = -0.109637667654981  LUMO = 0.117287611948672
                  Roothaan           | alpha              | beta
  Highest 2-occ =  -0.57563157229842 | -0.585898680640986 | -0.565364463955848
  Lowest 0-occ =   0.117287611948672 |  0.114194634659793 |  0.120380589237552
  1-occ =         -0.109637667654981 | -0.373727840530587 |  0.154453073635767
  Roothaan mo_energy =
[-0.90778562 -0.57563157 -0.57563157 -0.10963767  0.11728761  0.17538799
  0.175388    0.29487298  0.29487299  0.38244106  0.38387265  0.48637152
  0.54262891  0.54262892  0.58842809  0.5884281   0.75452682  0.81333879
  0.8275743   0.82757431  0.87989854  0.93752035  0.93752036  1.02411237
  1.02411237  1.11544766  1.17633767  1.17633767  1.31006563  1.51270998
  1.51270998  1.66775917  1.88088945  1.94118552  1.94118555  1.95188752
  1.95188754  2.01354702  2.01848981  2.06524661  2.06524663  2.10439249
  2.10439249  2.26453312  2.30602384  2.50759521  2.50759526  2.54102041
  2.54102041  2.65151787  2.6789307   2.67893071  2.7201921   2.73497477
  2.73497479  2.96558208  3.0342836   3.03428366  3.03553362  3.33996283
  3.33996284  3.34731323  3.64247952  3.64247952  3.72434157  3.72434162
  3.77875587  3.91558493  4.10226442  4.10226449  4.16139747  5.41048658
  5.47845856  5.47845857  5.55783189  5.59317014  5.64564552  5.64564553
  5.79073384  5.79073388  5.81922379  5.87055477  5.87055478  5.92119659
  6.04394591  6.04394597  6.32412151  6.35508803  6.36535013  6.40593681
  6.40593683  6.51826547  6.5182655   6.82129555  6.91761802  6.91997766
  6.9199777   7.08764089  7.0876409   7.36830073  7.36830077  7.58147874
  7.58147876  7.6437099   7.64371009  7.78877706  7.86906281  7.90255037
  7.90255041  8.04855034  8.04855035  8.05003419  8.05003423  8.05363651
  8.36433749  8.41119341  8.55084147  8.5508415   8.57980583  8.58785955
  8.58785958  8.71386356  8.71386364  8.71541412  9.00178768  9.00178774
  9.27237003  9.3420963   9.74899269  9.82608352  9.82608368 10.21540726
 10.43250979 10.43251003 10.51700482 10.5769775  10.57697762 10.62769801
 10.84750544 11.65648153 11.65648179 12.96308317 12.96308346 20.51316349]
E1 = -23.425575723306324  Ecoul = 9.46687451944126
Extra cycle  E= -7.20590118435994  delta_E= -8.25e-12  |g|= 1.08e-06  |ddm|= 9.48e-06
    CPU time for scf_cycle    938.74 sec, wall time      7.94 sec
    CPU time for SCF    938.81 sec, wall time      7.94 sec
converged SCF energy = -7.20590118435994
