#INFO: **** input file is /home/nkousuke/lustre/toBeSync/turboRVB/05turbo-genius-development/turbogenius_paper/04data/sanity_checks/03pyscf_HF_turbo_VMC_via_trexio/00open_boundary/results/He-/pyscf-HF-workflow/run.py ****

from pyscf_wrapper import Pyscf_wrapper

# input variables
pyscf_chkfile="pyscf.chk"
structure_file="He.xyz"

# input variables
omp_num_threads=128
charge=-1
spin=1
basis="ccecp-ccpvqz"
ecp="ccecp"
scf_method="HF"
dft_xc="NA"
solver_newton=False
MP2_flag=False
CCSD_flag=False
pyscf_output="out.pyscf"
twist_average=False
exp_to_discard=0.0
kpt=[0.0, 0.0, 0.0]
kpt_grid=[1, 1, 1]
smearing_method="fermi"
smearing_sigma=0.0

pyscf_calc=Pyscf_wrapper(
                        structure_file=structure_file,
                        chkfile=pyscf_chkfile,
                        )

pyscf_calc.run_pyscf(
                  omp_num_threads=omp_num_threads,
                  charge=charge,
                  spin=spin,
                  basis=basis,
                  ecp=ecp,
                  scf_method=scf_method,
                  dft_xc=dft_xc,
                  solver_newton=solver_newton,
                  MP2_flag=MP2_flag,
                  CCSD_flag=CCSD_flag,
                  pyscf_output=pyscf_output,
                  twist_average=twist_average,
                  exp_to_discard=exp_to_discard,
                  kpt=kpt,
                  kpt_grid=kpt_grid,
                  smearing_method=smearing_method,
                  smearing_sigma=smearing_sigma
                  )
                #INFO: ******************** input file end ********************


System: uname_result(system='Linux', node='spcc-238', release='5.4.0-66-generic', version='#74-Ubuntu SMP Wed Jan 27 22:54:38 UTC 2021', machine='x86_64', processor='x86_64')  Threads 128
Python 3.7.3 (default, Mar 27 2019, 22:11:17) 
[GCC 7.3.0]
numpy 1.20.1  scipy 1.7.3
Date: Mon Dec 19 18:08:02 2022
PySCF version 2.0.1
PySCF path  /home/nkousuke/application/anaconda3/lib/python3.7/site-packages/pyscf

[CONFIG] conf_file /home/nkousuke/.pyscf_conf.py
[INPUT] verbose = 5
[INPUT] max_memory = 506302.16015625 
[INPUT] num. atoms = 1
[INPUT] num. electrons = 3
[INPUT] charge = -1
[INPUT] spin (= nelec alpha-beta = 2S) = 1
[INPUT] symmetry False subgroup None
[INPUT] Mole.unit = A
[INPUT]  1 He     0.000000000000   0.000000000000   0.000000000000 AA    0.000000000000   0.000000000000   0.000000000000 Bohr
[INPUT] ---------------- BASIS SET ---------------- 
[INPUT] l, kappa, [nprim/nctr], expnt,             c_1 c_2 ...
[INPUT] He
[INPUT] 0    0    [8    /1   ]  39.320931         0.0100657
                                17.174528         0.0248762
                                7.501461          0.0582537
                                3.276475          0.1344596
                                1.431093          0.2443118
                                0.62507           0.3425061
                                0.273017          0.282647
                                0.119248          0.0739253
[INPUT] 0    0    [1    /1   ]  2.065565             1
[INPUT] 0    0    [1    /1   ]  0.657436             1
[INPUT] 0    0    [1    /1   ]  0.209251             1
[INPUT] 1    0    [1    /1   ]  5.989802             1
[INPUT] 1    0    [1    /1   ]  1.842859             1
[INPUT] 1    0    [1    /1   ]  0.566985             1
[INPUT] 2    0    [1    /1   ]  4.312957             1
[INPUT] 2    0    [1    /1   ]  1.213445             1
[INPUT] 3    0    [1    /1   ]  2.677255             1

nuclear repulsion = 0
number of shells = 10
number of NR pGTOs = 37
number of NR cGTOs = 30
basis = ccecp-ccpvqz
ecp = ccecp
CPU time:         6.02


******** <class 'pyscf.scf.rohf.ROHF'> ********
method = ROHF-RHF
initial guess = minao
damping factor = 0
level_shift factor = 0
DIIS = <class 'pyscf.scf.diis.CDIIS'>
diis_start_cycle = 1
diis_space = 8
SCF conv_tol = 1e-09
SCF conv_tol_grad = None
SCF max_cycles = 200
direct_scf = True
direct_scf_tol = 1e-13
chkfile to save SCF result = pyscf.chk
max_memory 506302 MB (current use 106 MB)
num. doubly occ = 1  num. singly occ = 1
Set gradient conv threshold to 3.16228e-05
E1 = -3.8853137071813375  Ecoul = 1.0237610707062523
init E= -2.86155263647509
cond(S) = 913.0575991543019
    CPU time for initialize scf     70.77 sec, wall time      0.68 sec
  HOMO = 0.614577203219316  LUMO = 1.10542570857708
                  Roothaan           | alpha              | beta
  Highest 2-occ = -0.918951713348408 | -0.918951713348408 | -0.918951713348408
  Lowest 0-occ =    1.10542570857708 |   1.10542570857708 |   1.10542570857708
  1-occ =          0.614577203219316 |   0.61457720321931 |   0.61457720321931
  Roothaan mo_energy =
[-0.91895171  0.6145772   1.10542571  1.10542571  1.10542571  3.52992135
  3.86006741  3.86006741  3.86006741  3.86006741  3.86006741  4.94937116
  4.94937116  4.94937116 11.57675575 11.57675575 11.57675575 11.57675575
 11.57675575 11.57675575 11.57675575 16.20741836 16.20741836 16.20741836
 16.20741836 16.20741836 17.00328738 18.09144132 18.09144132 18.09144132]
E1 = -4.285754903745653  Ecoul = 2.0390048364154234
cycle= 1 E= -2.24675006733023  delta_E= 0.615  |g|= 0.078  |ddm|= 5.03
    CPU time for cycle= 1     22.14 sec, wall time      0.18 sec
  HOMO = 0.829510582417818  LUMO = 1.56313294035611
                  Roothaan           | alpha              | beta
  Highest 2-occ = -0.415144040906478 | -0.461883055901879 | -0.360773921208147
  Lowest 0-occ =    1.56313294035611 |   1.54807080317345 |   1.57819507753877
  1-occ =          0.829510582417818 |  0.611551359696376 |   1.03980748060528
  Roothaan mo_energy =
[-0.41514404  0.82951058  1.56313294  1.56313294  1.56313294  4.03055644
  4.35852222  4.35852222  4.35852222  4.35852222  4.35852222  5.47068991
  5.47068991  5.47068991 12.11915245 12.11915245 12.11915245 12.11915245
 12.11915245 12.11915245 12.11915245 16.79879262 16.79879262 16.79879262
 16.79879262 16.79879262 17.6311068  18.71184847 18.71184847 18.71184847]
E1 = -4.250993456318624  Ecoul = 1.999564631745867
cycle= 2 E= -2.25142882457276  delta_E= -0.00468  |g|= 0.0227  |ddm|= 0.187
    CPU time for cycle= 2     12.34 sec, wall time      0.10 sec
  HOMO = 0.820338083003925  LUMO = 1.54963050407526
                  Roothaan           | alpha              | beta
  Highest 2-occ = -0.428929400105278 | -0.488004138789135 | -0.363585597244906
  Lowest 0-occ =    1.54963050407526 |   1.53776507294664 |   1.56507344465714
  1-occ =          0.820338083003925 |   0.59950229975754 |   1.04182641408163
  Roothaan mo_energy =
[-0.4289294   0.82033808  1.5496305   1.5496305   1.5496305   4.00610705
  4.34079394  4.34079394  4.34079394  4.34079394  4.34079394  5.44271271
  5.44271271  5.44271271 12.09020244 12.09020244 12.09020244 12.09020244
 12.09020244 12.09020244 12.09020244 16.75515302 16.75515302 16.75515302
 16.75515302 16.75515302 17.57552335 18.65948043 18.65948043 18.65948043]
E1 = -4.245260242224106  Ecoul = 1.993471369720965
cycle= 3 E= -2.25178887250314  delta_E= -0.00036  |g|= 0.005  |ddm|= 0.0744
    CPU time for cycle= 3     14.27 sec, wall time      0.12 sec
  HOMO = 0.819387819986229  LUMO = 1.54866057852827
                  Roothaan           | alpha              | beta
  Highest 2-occ = -0.427715072391187 | -0.493226182074762 | -0.361161041254806
  Lowest 0-occ =    1.54866057852827 |   1.53584169904496 |   1.56268069496562
  1-occ =          0.819387819986229 |   0.59606231159769 |    1.0431042344898
  Roothaan mo_energy =
[-0.42771507  0.81938782  1.54866058  1.54866058  1.54866058  4.0036336
  4.33958577  4.33958577  4.33958577  4.33958577  4.33958577  5.44159139
  5.44159139  5.44159139 12.08843912 12.08843912 12.08843912 12.08843912
 12.08843912 12.08843912 12.08843912 16.75356092 16.75356092 16.75356092
 16.75356092 16.75356092 17.57468295 18.65830225 18.65830225 18.65830225]
E1 = -4.243505907324044  Ecoul = 1.9916985262419504
cycle= 4 E= -2.25180738108209  delta_E= -1.85e-05  |g|= 3.84e-05  |ddm|= 0.021
    CPU time for cycle= 4     12.37 sec, wall time      0.10 sec
  HOMO = 0.819327518098692  LUMO = 1.54863791752518
                  Roothaan           | alpha              | beta
  Highest 2-occ = -0.427689307536874 | -0.494935720783559 | -0.360456181071638
  Lowest 0-occ =    1.54863791752518 |   1.53528541203001 |   1.56199365348784
  1-occ =          0.819327518098692 |  0.595283046884165 |   1.04338397130917
  Roothaan mo_energy =
[-0.42768931  0.81932752  1.54863792  1.54863792  1.54863792  4.00358221
  4.33955144  4.33955144  4.33955144  4.33955144  4.33955144  5.44153953
  5.44153953  5.44153953 12.08838753 12.08838753 12.08838753 12.08838753
 12.08838753 12.08838753 12.08838753 16.75348885 16.75348885 16.75348885
 16.75348885 16.75348885 17.57459203 18.6582162  18.6582162  18.6582162 ]
E1 = -4.243506689907353  Ecoul = 1.9916993085863592
cycle= 5 E= -2.25180738132099  delta_E= -2.39e-10  |g|= 5.1e-06  |ddm|= 8.56e-05
    CPU time for cycle= 5     18.08 sec, wall time      0.14 sec
  HOMO = 0.819333416709012  LUMO = 1.54863913366901
                  Roothaan           | alpha              | beta
  Highest 2-occ = -0.427694786448148 | -0.494937898453224 | -0.360451943716351
  Lowest 0-occ =    1.54863913366901 |   1.53528511448936 |   1.56199315284866
  1-occ =          0.819333416709012 |   0.59528176942791 |   1.04338512493182
  Roothaan mo_energy =
[-0.42769479  0.81933342  1.54863913  1.54863913  1.54863913  4.00358647
  4.33955338  4.33955338  4.33955338  4.33955338  4.33955338  5.44154244
  5.44154244  5.44154244 12.08839048 12.08839048 12.08839048 12.08839048
 12.08839048 12.08839048 12.08839048 16.75349283 16.75349283 16.75349283
 16.75349283 16.75349283 17.5745968  18.65822077 18.65822077 18.65822077]
E1 = -4.243506704893182  Ecoul = 1.9916993235628717
Extra cycle  E= -2.25180738133031  delta_E= -9.32e-12  |g|= 1.11e-06  |ddm|= 1.46e-05
    CPU time for scf_cycle    169.73 sec, wall time      1.47 sec
    CPU time for SCF    169.73 sec, wall time      1.47 sec
converged SCF energy = -2.25180738133031
