#INFO: **** input file is /home/nkousuke/lustre/toBeSync/turboRVB/05turbo-genius-development/turbogenius_paper/04data/sanity_checks/03pyscf_HF_turbo_VMC_via_trexio/00open_boundary/results/CN/pyscf-HF-workflow/run.py ****

from pyscf_wrapper import Pyscf_wrapper

# input variables
pyscf_chkfile="pyscf.chk"
structure_file="CN.xyz"

# input variables
omp_num_threads=128
charge=0
spin=1
basis="ccecp-ccpvqz"
ecp="ccecp"
scf_method="HF"
dft_xc="NA"
solver_newton=False
MP2_flag=False
CCSD_flag=False
pyscf_output="out.pyscf"
twist_average=False
exp_to_discard=0.0
kpt=[0.0, 0.0, 0.0]
kpt_grid=[1, 1, 1]
smearing_method="fermi"
smearing_sigma=0.0

pyscf_calc=Pyscf_wrapper(
                        structure_file=structure_file,
                        chkfile=pyscf_chkfile,
                        )

pyscf_calc.run_pyscf(
                  omp_num_threads=omp_num_threads,
                  charge=charge,
                  spin=spin,
                  basis=basis,
                  ecp=ecp,
                  scf_method=scf_method,
                  dft_xc=dft_xc,
                  solver_newton=solver_newton,
                  MP2_flag=MP2_flag,
                  CCSD_flag=CCSD_flag,
                  pyscf_output=pyscf_output,
                  twist_average=twist_average,
                  exp_to_discard=exp_to_discard,
                  kpt=kpt,
                  kpt_grid=kpt_grid,
                  smearing_method=smearing_method,
                  smearing_sigma=smearing_sigma
                  )
                #INFO: ******************** input file end ********************


System: uname_result(system='Linux', node='spcc-145', release='5.4.0-66-generic', version='#74-Ubuntu SMP Wed Jan 27 22:54:38 UTC 2021', machine='x86_64', processor='x86_64')  Threads 128
Python 3.7.3 (default, Mar 27 2019, 22:11:17) 
[GCC 7.3.0]
numpy 1.20.1  scipy 1.7.3
Date: Mon Dec 19 18:05:39 2022
PySCF version 2.0.1
PySCF path  /home/nkousuke/application/anaconda3/lib/python3.7/site-packages/pyscf

[CONFIG] conf_file /home/nkousuke/.pyscf_conf.py
[INPUT] verbose = 5
[INPUT] max_memory = 506570.63671875 
[INPUT] num. atoms = 2
[INPUT] num. electrons = 9
[INPUT] charge = 0
[INPUT] spin (= nelec alpha-beta = 2S) = 1
[INPUT] symmetry False subgroup None
[INPUT] Mole.unit = A
[INPUT]  1 C      0.000000000000   0.000000000000  -0.631100000000 AA    0.000000000000   0.000000000000  -1.192606157213 Bohr
[INPUT]  2 N      0.000000000000   0.000000000000   0.541000000000 AA    0.000000000000   0.000000000000   1.022341833390 Bohr
[INPUT] ---------------- BASIS SET ---------------- 
[INPUT] l, kappa, [nprim/nctr], expnt,             c_1 c_2 ...
[INPUT] N
[INPUT] 0    0    [9    /1   ]  42.693822         -0.0009357
                                19.963207         0.0063295
                                9.3345971         0.0105038
                                4.9278187         -0.1653735
                                2.04092           -0.0005352
                                0.96708           0.2452063
                                0.476131          0.4582128
                                0.211443          0.3641224
                                0.098869          0.0620406
[INPUT] 0    0    [1    /1   ]  1.625001             1
[INPUT] 0    0    [1    /1   ]  0.310826             1
[INPUT] 0    0    [1    /1   ]  0.135764             1
[INPUT] 1    0    [9    /1   ]  18.925871         0.0073505
                                9.225603          0.0292844
                                4.581431          0.0652168
                                2.300164          0.1405153
                                1.154825          0.2328188
                                0.582039          0.2989556
                                0.290535          0.2802507
                                0.145867          0.1527995
                                0.073234          0.0355475
[INPUT] 1    0    [1    /1   ]  1.02075              1
[INPUT] 1    0    [1    /1   ]  0.413103             1
[INPUT] 1    0    [1    /1   ]  0.140736             1
[INPUT] 2    0    [1    /1   ]  3.028459             1
[INPUT] 2    0    [1    /1   ]  1.009895             1
[INPUT] 2    0    [1    /1   ]  0.346233             1
[INPUT] 3    0    [1    /1   ]  2.024747             1
[INPUT] 3    0    [1    /1   ]  0.691129             1
[INPUT] 4    0    [1    /1   ]  1.357512             1
[INPUT] C
[INPUT] 0    0    [9    /1   ]  13.073594         0.0051583
                                6.541187          0.0603424
                                4.573411          -0.1978471
                                1.637494          -0.081034
                                0.819297          0.2321726
                                0.409924          0.2914643
                                0.2313            0.4336405
                                0.102619          0.213194
                                0.051344          0.0049848
[INPUT] 0    0    [1    /1   ]  0.846879             1
[INPUT] 0    0    [1    /1   ]  0.269659             1
[INPUT] 0    0    [1    /1   ]  0.109576             1
[INPUT] 1    0    [9    /1   ]  9.934169          0.0209076
                                3.886955          0.0572698
                                1.871016          0.1122682
                                0.935757          0.2130082
                                0.468003          0.2835815
                                0.239473          0.3011207
                                0.117063          0.2016934
                                0.058547          0.0453575
                                0.029281          0.0029775
[INPUT] 1    0    [1    /1   ]  0.804681             1
[INPUT] 1    0    [1    /1   ]  0.313254             1
[INPUT] 1    0    [1    /1   ]  0.105389             1
[INPUT] 2    0    [1    /1   ]  2.01376              1
[INPUT] 2    0    [1    /1   ]  0.684884             1
[INPUT] 2    0    [1    /1   ]  0.240171             1
[INPUT] 3    0    [1    /1   ]  0.457302             1
[INPUT] 3    0    [1    /1   ]  1.32493              1
[INPUT] 4    0    [1    /1   ]  1.03418              1

nuclear repulsion = 9.02955739134886
number of shells = 28
number of NR pGTOs = 172
number of NR cGTOs = 108
basis = ccecp-ccpvqz
ecp = ccecp
CPU time:         4.44


******** <class 'pyscf.scf.rohf.ROHF'> ********
method = ROHF-RHF
initial guess = minao
damping factor = 0
level_shift factor = 0
DIIS = <class 'pyscf.scf.diis.CDIIS'>
diis_start_cycle = 1
diis_space = 8
SCF conv_tol = 1e-09
SCF conv_tol_grad = None
SCF max_cycles = 200
direct_scf = True
direct_scf_tol = 1e-13
chkfile to save SCF result = pyscf.chk
max_memory 506570 MB (current use 106 MB)
num. doubly occ = 4  num. singly occ = 1
Set gradient conv threshold to 3.16228e-05
E1 = -41.11407327991334  Ecoul = 17.338865275268997
init E= -14.7456506132955
cond(S) = 22420.41324037787
    CPU time for initialize scf     97.08 sec, wall time      0.86 sec
  HOMO = -0.316382377550267  LUMO = 0.0665105188257187
                  Roothaan           | alpha              | beta
  Highest 2-occ = -0.426701605857004 | -0.426701605857006 | -0.426701605857006
  Lowest 0-occ =  0.0665105188257187 | 0.0665105188257198 | 0.0665105188257198
  1-occ =         -0.316382377550267 | -0.316382377550267 | -0.316382377550267
  Roothaan mo_energy =
[-1.53761045 -0.59907933 -0.42670161 -0.42670161 -0.31638238  0.06651052
  0.06651052  0.21167946  0.32581038  0.35032572  0.35032572  0.39898028
  0.49262304  0.49262304  0.62521178  0.62521178  0.63595484  0.68078581
  0.82209163  0.82209163  1.06068475  1.06068475  1.07442872  1.29595504
  1.29595504  1.29665124  1.57918536  1.57918536  1.71634735  1.77473097
  1.77473097  1.89035079  1.97588784  1.97588784  2.08228833  2.10327863
  2.10327863  2.13091734  2.13091734  2.15037711  2.15037711  2.41321711
  2.51397592  2.51397592  2.77520592  2.77520592  2.84845632  3.18452457
  3.18452457  3.18767228  3.32829315  3.32829315  3.36812826  3.36812826
  4.11181983  4.18786763  4.18786763  4.59339752  5.17977526  5.17977526
  5.21553652  5.21553652  5.54857522  5.54857522  5.6584085   5.6584085
  5.82113062  5.82362964  5.82362964  5.92853033  5.92853033  5.96846017
  5.96846017  6.0551888   6.0551888   6.22308613  6.66093736  6.75987347
  6.75987347  6.83294335  6.83294335  7.00090443  7.00090443  7.28666306
  7.28666306  7.53468595  7.82140424  7.82140424  7.95114214  8.41803598
  8.41803598  8.53256367  8.53256367  8.83183447  8.8344953   8.8344953
  9.08804254  9.08804254  9.88064665  9.88064665  9.99229948 10.05557696
 10.05557696 11.60896912 11.79921258 11.79921258 17.70423785 19.12241568]
E1 = -41.607666831744915  Ecoul = 17.537165143878426
cycle= 1 E= -15.0409442965176  delta_E= -0.295  |g|= 0.301  |ddm|= 1.91
    CPU time for cycle= 1    118.80 sec, wall time      1.05 sec
  HOMO = -0.377493375363041  LUMO = 0.12373792932136
                  Roothaan           | alpha              | beta
  Highest 2-occ = -0.534631017020854 |  -0.54455910947867 | -0.524702924563043
  Lowest 0-occ =    0.12373792932136 |  0.107874175821633 |  0.139601682821085
  1-occ =         -0.377493375363041 | -0.613364454229439 | -0.112725163203773
  Roothaan mo_energy =
[-1.27641667 -0.63373938 -0.53463102 -0.53463102 -0.37749338  0.12373793
  0.12373793  0.21172614  0.28578616  0.33040023  0.33040023  0.43256557
  0.53479665  0.53479665  0.59831088  0.59831088  0.65043454  0.68839329
  0.80153836  0.80153836  1.09979348  1.09979348  1.11385961  1.33579758
  1.34044678  1.34044678  1.52453713  1.52453713  1.61953302  1.73142875
  1.73142875  1.86746164  1.9527106   1.9527106   2.04324735  2.04324735
  2.0786158   2.0786158   2.09896875  2.19310383  2.19310383  2.46650538
  2.52610233  2.52610233  2.8459831   2.8459831   2.88110203  3.24316544
  3.27266771  3.27266771  3.39423456  3.39423456  3.45022619  3.45022619
  4.12262219  4.20318888  4.20318888  4.63028667  5.10173048  5.10173048
  5.17884743  5.17884743  5.46216517  5.46216517  5.64843379  5.64843379
  5.72096024  5.72096024  5.72467135  5.81878234  5.81878234  5.86743378
  5.86743378  6.0714257   6.0714257   6.20664761  6.65807839  6.66290156
  6.66290156  6.93902157  6.93902157  7.0923813   7.0923813   7.37263211
  7.37263211  7.52907769  7.8135439   7.8135439   8.04632703  8.49013851
  8.49013851  8.61814761  8.61814761  8.88553198  8.96335208  8.96335208
  9.21778671  9.21778671  9.99447346  9.99447346 10.09821283 10.18644917
 10.18644917 11.71887921 11.8977442  11.8977442  17.80362865 19.06745051]
E1 = -41.4724147346204  Ecoul = 17.410036814246542
cycle= 2 E= -15.032820529025  delta_E= 0.00812  |g|= 0.372  |ddm|= 0.644
    CPU time for cycle= 2     97.96 sec, wall time      0.83 sec
  HOMO = -0.352488198898234  LUMO = 0.135244471125684
                  Roothaan           | alpha              | beta
  Highest 2-occ = -0.541938759227762 | -0.563609454962553 | -0.543726259737147
  Lowest 0-occ =   0.135244471125684 |  0.136227762849928 |  0.162906518335064
  1-occ =         -0.352488198898234 | -0.577006029094643 | -0.0586675638247927
  Roothaan mo_energy =
[-1.28366309 -0.6459856  -0.54193876 -0.54193876 -0.3524882   0.13524447
  0.13524447  0.21632229  0.31091208  0.35054392  0.35054392  0.4114629
  0.51670867  0.51670867  0.61938037  0.61938037  0.64611375  0.70087224
  0.81982278  0.81982278  1.07806461  1.07806461  1.11462811  1.31539921
  1.31539921  1.3183238   1.57740308  1.57740308  1.68929419  1.76722828
  1.76722828  1.89579905  1.97736069  1.97736069  2.09055126  2.09055126
  2.10563175  2.13791537  2.13791537  2.15861437  2.15861437  2.42850207
  2.53028484  2.53028484  2.80637233  2.80637233  2.86946876  3.21755864
  3.22341299  3.22341299  3.35430305  3.35430305  3.39774361  3.39774361
  4.12870883  4.20794391  4.20794391  4.63564039  5.16733446  5.16733446
  5.22503347  5.22503347  5.55202072  5.55202072  5.6932115   5.6932115
  5.80694462  5.80694462  5.81110947  5.89811385  5.89811385  5.94093676
  5.94093676  6.09833747  6.09833747  6.23883486  6.68395143  6.75706778
  6.75706778  6.8745491   6.8745491   7.03435415  7.03435415  7.32765905
  7.32765905  7.55254689  7.836398    7.836398    7.98642992  8.45808752
  8.45808752  8.5724243   8.5724243   8.86278365  8.87571573  8.87571573
  9.13383732  9.13383732  9.93513612  9.93513612 10.04789311 10.09458044
 10.09458044 11.66205836 11.84136273 11.84136273 17.73875407 19.14970892]
E1 = -41.76561973929769  Ecoul = 17.662673563804262
cycle= 3 E= -15.0733887841446  delta_E= -0.0406  |g|= 0.0783  |ddm|= 0.374
    CPU time for cycle= 3     92.48 sec, wall time      0.74 sec
  HOMO = -0.336883905666634  LUMO = 0.145974428698303
                  Roothaan           | alpha              | beta
  Highest 2-occ = -0.525805714181811 | -0.528338483470694 | -0.509195651689272
  Lowest 0-occ =   0.145974428698303 |  0.132091453709447 |  0.162304581461371
  1-occ =         -0.336883905666634 | -0.613511082935208 | -0.0678659375550692
  Roothaan mo_energy =
[-1.26225398 -0.63434181 -0.52580571 -0.52580571 -0.33688391  0.14597443
  0.14597443  0.21820994  0.30990708  0.3549358   0.3549358   0.41562367
  0.52394878  0.52394878  0.62401318  0.62401318  0.65030177  0.70727376
  0.82418759  0.82418759  1.08597793  1.08597793  1.12790769  1.32424464
  1.32424464  1.32790076  1.58759759  1.58759759  1.69455996  1.77261302
  1.77261302  1.90355955  1.98403454  1.98403454  2.09501048  2.09501048
  2.11871761  2.14646434  2.14646434  2.17546528  2.17546528  2.44404849
  2.54185709  2.54185709  2.81767456  2.81767456  2.88315652  3.23255062
  3.2417876   3.2417876   3.36704941  3.36704941  3.41387075  3.41387075
  4.14446621  4.2236675   4.2236675   4.65739036  5.17729698  5.17729698
  5.2379377   5.2379377   5.57081879  5.57081879  5.71296743  5.71296743
  5.81959277  5.81959277  5.82387884  5.90517983  5.90517983  5.94868393
  5.94868393  6.12255424  6.12255424  6.25611441  6.70819442  6.77501935
  6.77501935  6.89113176  6.89113176  7.05977915  7.05977915  7.34642008
  7.34642008  7.57150454  7.85723099  7.85723099  8.01373152  8.47912111
  8.47912111  8.59703168  8.59703168  8.88673784  8.89908592  8.89908592
  9.16055954  9.16055954  9.96438077  9.96438077 10.07949282 10.12276095
 10.12276095 11.69594621 11.87093608 11.87093608 17.77176225 19.17974393]
E1 = -41.73481610225086  Ecoul = 17.627596687690687
cycle= 4 E= -15.0776620232113  delta_E= -0.00427  |g|= 0.0579  |ddm|= 0.112
    CPU time for cycle= 4     94.72 sec, wall time      0.78 sec
  HOMO = -0.337090328477468  LUMO = 0.146756110634373
                  Roothaan           | alpha              | beta
  Highest 2-occ = -0.523794153345492 | -0.531176914970451 | -0.511931621394765
  Lowest 0-occ =   0.146756110634373 |  0.130229544838951 |  0.161521660003059
  1-occ =         -0.337090328477468 | -0.629415063444193 | -0.0638393646819036
  Roothaan mo_energy =
[-1.26095469 -0.63632757 -0.52379415 -0.52379415 -0.33709033  0.14675611
  0.14675611  0.21784037  0.30586614  0.35344384  0.35344384  0.41916679
  0.52668886  0.52668886  0.62168943  0.62168943  0.65070931  0.70536449
  0.8216586   0.8216586   1.08848155  1.08848155  1.12893093  1.3286304
  1.3286304   1.33027273  1.58502134  1.58502134  1.6875893   1.76965535
  1.76965535  1.90095607  1.98161475  1.98161475  2.0893316   2.0893316
  2.11994934  2.14220226  2.14220226  2.17746237  2.17746237  2.44842153
  2.54142484  2.54142484  2.82023942  2.82023942  2.88553723  3.23580797
  3.24417929  3.24417929  3.37209173  3.37209173  3.42147564  3.42147564
  4.14398336  4.22413196  4.22413196  4.66070129  5.17371193  5.17371193
  5.23542514  5.23542514  5.56939122  5.56939122  5.71289229  5.71289229
  5.81516547  5.81516547  5.81757254  5.89637092  5.89637092  5.94082579
  5.94082579  6.12407009  6.12407009  6.2551378   6.70898457  6.77221087
  6.77221087  6.89271446  6.89271446  7.06037651  7.06037651  7.34957826
  7.34957826  7.57070888  7.85695014  7.85695014  8.01687391  8.48249457
  8.48249457  8.6039702   8.6039702   8.89283554  8.9003467   8.9003467
  9.16608855  9.16608855  9.96840582  9.96840582 10.08539495 10.12400842
 10.12400842 11.70189498 11.87550713 11.87550713 17.77142669 19.18056992]
E1 = -41.76029287232767  Ecoul = 17.647605955740133
cycle= 5 E= -15.0831295252387  delta_E= -0.00547  |g|= 0.0533  |ddm|= 0.168
    CPU time for cycle= 5     91.83 sec, wall time      0.76 sec
  HOMO = -0.335579079052215  LUMO = 0.150613696497639
                  Roothaan           | alpha              | beta
  Highest 2-occ = -0.513035920659914 | -0.527357521895267 | -0.506275765539766
  Lowest 0-occ =   0.150613696497639 |   0.13114187246481 |  0.163778634589671
  1-occ =         -0.335579079052215 | -0.669469818463377 | -0.0647754654816396
  Roothaan mo_energy =
[-1.25154129 -0.64115779 -0.51303592 -0.51303592 -0.33557908  0.1506137
  0.1506137   0.2156179   0.29422633  0.34942555  0.34942555  0.43044429
  0.5364879   0.5364879   0.61485863  0.61485863  0.65136904  0.70066225
  0.8135908   0.8135908   1.09693379  1.09693379  1.13362309  1.33918608
  1.3420137   1.3420137   1.57955155  1.57955155  1.66581756  1.76097917
  1.76097917  1.89264245  1.97446263  1.97446263  2.07088021  2.07088021
  2.12631998  2.13118938  2.13118938  2.18712372  2.18712372  2.46251745
  2.54259671  2.54259671  2.82978628  2.82978628  2.89477918  3.2472628
  3.25550779  3.25550779  3.38795193  3.38795193  3.4444866   3.4444866
  4.14518256  4.22793736  4.22793736  4.67533411  5.16425378  5.16425378
  5.22985352  5.22985352  5.57001787  5.57001787  5.71726929  5.71726929
  5.79953918  5.80462057  5.80462057  5.86820497  5.86820497  5.91776804
  5.91776804  6.13643632  6.13643632  6.25675805  6.71679235  6.76850804
  6.76850804  6.90108513  6.90108513  7.06946633  7.06946633  7.36248652
  7.36248652  7.57145018  7.85963484  7.85963484  8.03245891  8.49663044
  8.49663044  8.62838559  8.62838559  8.91000531  8.91000531  8.91435562
  9.18785978  9.18785978  9.9885763   9.9885763  10.11113677 10.13526742
 10.13526742 11.72826934 11.89550481 11.89550481 17.78108278 19.19329841]
E1 = -41.738023855337104  Ecoul = 17.62201648948719
cycle= 6 E= -15.0864499745011  delta_E= -0.00332  |g|= 0.051  |ddm|= 0.46
    CPU time for cycle= 6     91.52 sec, wall time      0.74 sec
  HOMO = -0.338797715373606  LUMO = 0.148648374052608
                  Roothaan           | alpha              | beta
  Highest 2-occ = -0.520529613883401 | -0.522592539652194 | -0.501760907701312
  Lowest 0-occ =   0.148648374052608 |  0.131816102545342 |  0.171589302179162
  1-occ =         -0.338797715373606 | -0.645497200618948 | -0.0452136103721437
  Roothaan mo_energy =
[-1.25748035 -0.62935613 -0.52052961 -0.52052961 -0.33879772  0.14864837
  0.14864837  0.2180646   0.30506491  0.35415017  0.35415017  0.41912598
  0.52751925  0.52751925  0.62173315  0.62173315  0.65039967  0.7055669
  0.82227181  0.82227181  1.08859593  1.08859593  1.12993157  1.32929087
  1.32929087  1.33049483  1.58691579  1.58691579  1.68956176  1.7699137
  1.7699137   1.90228649  1.9822291   1.9822291   2.09050906  2.09050906
  2.12169745  2.14363329  2.14363329  2.17876601  2.17876601  2.45008259
  2.54268949  2.54268949  2.81974317  2.81974317  2.88705741  3.23712318
  3.24482418  3.24482418  3.37261181  3.37261181  3.42277719  3.42277719
  4.14653982  4.22632799  4.22632799  4.66395847  5.17468279  5.17468279
  5.23700284  5.23700284  5.57337768  5.57337768  5.715784    5.715784
  5.81715976  5.81715976  5.82116142  5.8991734   5.8991734   5.94306548
  5.94306548  6.12807203  6.12807203  6.2584042   6.71419986  6.77561862
  6.77561862  6.89183071  6.89183071  7.06265876  7.06265876  7.35026828
  7.35026828  7.57392474  7.86054151  7.86054151  8.02004214  8.48435942
  8.48435942  8.60703261  8.60703261  8.89647725  8.90037457  8.90037457
  9.16807748  9.16807748  9.97198766  9.97198766 10.09039793 10.12543358
 10.12543358 11.70720941 11.87925064 11.87925064 17.77562427 19.18748711]
E1 = -41.74137449664982  Ecoul = 17.628671158026773
cycle= 7 E= -15.0831459472742  delta_E= 0.0033  |g|= 0.0388  |ddm|= 0.472
    CPU time for cycle= 7     51.73 sec, wall time      0.41 sec
  HOMO = -0.342002576008354  LUMO = 0.150054028755405
                  Roothaan           | alpha              | beta
  Highest 2-occ = -0.515666681129543 | -0.529128786267535 | -0.508879500172509
  Lowest 0-occ =   0.150054028755405 |  0.131191370656167 |  0.164068189521089
  1-occ =         -0.342002576008354 | -0.650021199285596 | -0.0506901801472472
  Roothaan mo_energy =
[-1.25440397 -0.62899461 -0.51566668 -0.51566668 -0.34200258  0.15005403
  0.15005403  0.21716369  0.29970694  0.35208498  0.35208498  0.42404354
  0.53184037  0.53184037  0.61838598  0.61838598  0.65068924  0.70313732
  0.81846136  0.81846136  1.09222757  1.09222757  1.13177841  1.33417355
  1.33510871  1.33510871  1.58372404  1.58372404  1.67921967  1.76563803
  1.76563803  1.89830866  1.97872187  1.97872187  2.08190294  2.08190294
  2.12401078  2.13792041  2.13792041  2.18293241  2.18293241  2.45597894
  2.54280432  2.54280432  2.82379394  2.82379394  2.89089758  3.24205508
  3.24980359  3.24980359  3.37939112  3.37939112  3.43289328  3.43289328
  4.1465794   4.22752515  4.22752515  4.66982316  5.16961153  5.16961153
  5.23384921  5.23384921  5.57219893  5.57219893  5.7170785   5.7170785
  5.81124337  5.81124337  5.81229009  5.88589264  5.88589264  5.93180253
  5.93180253  6.1327211   6.1327211   6.25838146  6.71694281  6.77245913
  6.77245913  6.8952813   6.8952813   7.06664463  7.06664463  7.35573357
  7.35573357  7.57364138  7.86097876  7.86097876  8.02683896  8.49036822
  8.49036822  8.61760156  8.61760156  8.90447891  8.90447891  8.90550462
  9.17773318  9.17773318  9.98098078  9.98098078 10.10177988 10.1303949
 10.1303949  11.71889306 11.88801612 11.88801612 17.7799384  19.19131854]
E1 = -41.75203817510288  Ecoul = 17.634087910860956
cycle= 8 E= -15.0883928728931  delta_E= -0.00525  |g|= 0.0154  |ddm|= 0.236
    CPU time for cycle= 8    103.27 sec, wall time      0.84 sec
  HOMO = -0.344986068838276  LUMO = 0.150981781421561
                  Roothaan           | alpha              | beta
  Highest 2-occ = -0.513384582417618 | -0.525671382710956 | -0.504112664587606
  Lowest 0-occ =   0.150981781421561 |  0.131924902535159 |  0.167810007152694
  1-occ =         -0.344986068838276 | -0.671417653909746 | -0.0257755812603249
  Roothaan mo_energy =
[-1.25243288 -0.62695567 -0.51338458 -0.51338458 -0.34498607  0.15098178
  0.15098178  0.21666551  0.29710917  0.35125121  0.35125121  0.42642512
  0.53398751  0.53398751  0.61694028  0.61694028  0.65082194  0.70217705
  0.81676833  0.81676833  1.0940131   1.0940131   1.13285742  1.3360734
  1.33800481  1.33800481  1.58258353  1.58258353  1.67455278  1.76384647
  1.76384647  1.89647221  1.97719246  1.97719246  2.07794205  2.07794205
  2.125415    2.13564112  2.13564112  2.18503947  2.18503947  2.45907526
  2.54302962  2.54302962  2.82576737  2.82576737  2.89289662  3.24453282
  3.25218927  3.25218927  3.38282405  3.38282405  3.43790617  3.43790617
  4.14682191  4.22835377  4.22835377  4.67298904  5.16771374  5.16771374
  5.23267457  5.23267457  5.57238271  5.57238271  5.71801219  5.71801219
  5.80838451  5.80912797  5.80912797  5.87979973  5.87979973  5.92687928
  5.92687928  6.13538249  6.13538249  6.25876168  6.7186529   6.77175357
  6.77175357  6.89694646  6.89694646  7.06862268  7.06862268  7.35847872
  7.35847872  7.5738029   7.86157076  7.86157076  8.0302572   8.49343711
  8.49343711  8.62297382  8.62297382  8.9064609   8.9064609   8.91024219
  9.1824842   9.1824842   9.98543752  9.98543752 10.10748476 10.13279707
 10.13279707 11.72474532 11.89242886 11.89242886 17.78208889 19.19407509]
E1 = -41.747979511539626  Ecoul = 17.6295682488419
cycle= 9 E= -15.0888538713489  delta_E= -0.000461  |g|= 0.00455  |ddm|= 0.107
    CPU time for cycle= 9    114.62 sec, wall time      0.92 sec
  HOMO = -0.345268956207068  LUMO = 0.150570246192383
                  Roothaan           | alpha              | beta
  Highest 2-occ = -0.514166369329821 | -0.524645504796713 | -0.502722047257452
  Lowest 0-occ =   0.150570246192383 |   0.13217970928572 |  0.169575750331534
  1-occ =         -0.345268956207068 | -0.671900845788291 | -0.0167259089577433
  Roothaan mo_energy =
[-1.25311358 -0.62684605 -0.51416637 -0.51416637 -0.34526896  0.15057025
  0.15057025  0.21679042  0.2978801   0.35145469  0.35145469  0.42562344
  0.53324465  0.53324465  0.61733096  0.61733096  0.65071965  0.70237068
  0.81723269  0.81723269  1.09333154  1.09333154  1.1323819   1.33533218
  1.33699337  1.33699337  1.58284239  1.58284239  1.67589397  1.76435228
  1.76435228  1.89694146  1.97758534  1.97758534  2.07909326  2.07909326
  2.12484546  2.13626182  2.13626182  2.18418184  2.18418184  2.45789812
  2.54280776  2.54280776  2.82494752  2.82494752  2.89210864  3.24357914
  3.25119153  3.25119153  3.38157475  3.38157475  3.4361526   3.4361526
  4.14654805  4.22790963  4.22790963  4.67180077  5.1682241   5.1682241
  5.23290208  5.23290208  5.57218356  5.57218356  5.71755277  5.71755277
  5.80945656  5.80968306  5.80968306  5.8815448   5.8815448   5.92827117
  5.92827117  6.13434016  6.13434016  6.25845834  6.71789817  6.77182821
  6.77182821  6.89610836  6.89610836  7.06769634  7.06769634  7.35736185
  7.35736185  7.57353447  7.86115467  7.86115467  8.02888639  8.49224441
  8.49224441  8.62105964  8.62105964  8.90544887  8.90544887  8.90853194
  9.18068448  9.18068448  9.9837881   9.9837881  10.1054656  10.13164933
 10.13164933 11.72265584 11.8907591  11.8907591  17.7810706  19.19300903]
E1 = -41.74975708407984  Ecoul = 17.63132277962113
cycle= 10 E= -15.0888769131098  delta_E= -2.3e-05  |g|= 0.00261  |ddm|= 0.0357
    CPU time for cycle= 10     91.06 sec, wall time      0.76 sec
  HOMO = -0.345145183513783  LUMO = 0.150718837393944
                  Roothaan           | alpha              | beta
  Highest 2-occ = -0.513861427795539 | -0.524943794455507 | -0.503121726443725
  Lowest 0-occ =   0.150718837393944 |  0.132143564937293 |  0.169037841795181
  1-occ =         -0.345145183513783 | -0.672008960524443 | -0.019041710990322
  Roothaan mo_energy =
[-1.2528743  -0.62697859 -0.51386143 -0.51386143 -0.34514518  0.15071884
  0.15071884  0.2167334   0.29757697  0.35136335  0.35136335  0.42593486
  0.5335305   0.5335305   0.61717166  0.61717166  0.65075062  0.70228492
  0.81704279  0.81704279  1.09358173  1.09358173  1.1325572   1.33560512
  1.33737931  1.33737931  1.58273877  1.58273877  1.67536048  1.76415651
  1.76415651  1.8967404   1.97742212  1.97742212  2.0786297   2.0786297
  2.12505373  2.13601923  2.13601923  2.18449182  2.18449182  2.45833376
  2.5428723   2.5428723   2.82523291  2.82523291  2.89239742  3.24392785
  3.25154003  3.25154003  3.3820426   3.3820426   3.43682047  3.43682047
  4.14662787  4.22805975  4.22805975  4.67224571  5.16804019  5.16804019
  5.23280448  5.23280448  5.57227355  5.57227355  5.71772104  5.71772104
  5.80902738  5.80948499  5.80948499  5.88083933  5.88083933  5.92771257
  5.92771257  6.13472716  6.13472716  6.25855756  6.71817181  6.77181399
  6.77181399  6.89637495  6.89637495  7.0680103   7.0680103   7.35775739
  7.35775739  7.5736146   7.86129548  7.86129548  8.02937932  8.49267944
  8.49267944  8.62178625  8.62178625  8.90577318  8.90577318  8.90918249
  9.18134239  9.18134239  9.98439691  9.98439691 10.10622827 10.13203137
 10.13203137 11.72344472 11.89137619 11.89137619 17.78141584 19.19342812]
E1 = -41.749179318222446  Ecoul = 17.630731255915066
cycle= 11 E= -15.0888906709585  delta_E= -1.38e-05  |g|= 0.000158  |ddm|= 0.0145
    CPU time for cycle= 11     94.03 sec, wall time      0.75 sec
  HOMO = -0.345156628015257  LUMO = 0.150709892511573
                  Roothaan           | alpha              | beta
  Highest 2-occ = -0.513879314091487 | -0.524822090894811 | -0.502929937991417
  Lowest 0-occ =   0.150709892511573 |  0.132170615715576 |  0.169256015453502
  1-occ =         -0.345156628015257 | -0.672420358597705 | -0.0178782578330922
  Roothaan mo_energy =
[-1.25289657 -0.62699411 -0.51387931 -0.51387931 -0.34515663  0.15070989
  0.15070989  0.21673454  0.29759572  0.35136384  0.35136384  0.42591893
  0.53351676  0.53351676  0.61717565  0.61717565  0.65074726  0.70228642
  0.81704856  0.81704856  1.09356794  1.09356794  1.1325459   1.33558906
  1.33735901  1.33735901  1.58273665  1.58273665  1.67537642  1.76416287
  1.76416287  1.89674365  1.97742531  1.97742531  2.07864329  2.07864329
  2.12503967  2.13602319  2.13602319  2.1844742   2.1844742   2.45830874
  2.54286296  2.54286296  2.8252147   2.8252147   2.89237907  3.24390798
  3.25151889  3.25151889  3.38201778  3.38201778  3.43678745  3.43678745
  4.14661594  4.22804512  4.22804512  4.67221757  5.16804343  5.16804343
  5.23280177  5.23280177  5.57225735  5.57225735  5.71770497  5.71770497
  5.80903206  5.80948471  5.80948471  5.88085602  5.88085602  5.92772521
  5.92772521  6.13470106  6.13470106  6.25854455  6.71814815  6.77180193
  6.77180193  6.8963543   6.8963543   7.06798873  7.06798873  7.3577332
  7.3577332   7.57360014  7.86127752  7.86127752  8.02935014  8.49265386
  8.49265386  8.62174893  8.62174893  8.90574956  8.90574956  8.90914674
  9.18130803  9.18130803  9.98436541  9.98436541 10.10618987 10.13200634
 10.13200634 11.72340509 11.89134297 11.89134297 17.78139232 19.19339363]
E1 = -41.749189714500375  Ecoul = 17.63074160569488
cycle= 12 E= -15.0888907174566  delta_E= -4.65e-08  |g|= 5.8e-05  |ddm|= 0.000553
    CPU time for cycle= 12     89.22 sec, wall time      0.71 sec
  HOMO = -0.345154689050859  LUMO = 0.150707463559284
                  Roothaan           | alpha              | beta
  Highest 2-occ = -0.513884916774776 | -0.524826230727241 |  -0.50293788414948
  Lowest 0-occ =   0.150707463559284 |  0.132170068784163 |  0.169249628530239
  1-occ =         -0.345154689050859 | -0.672371125542508 | -0.0179250047887264
  Roothaan mo_energy =
[-1.25290039 -0.62699462 -0.51388492 -0.51388492 -0.34515469  0.15070746
  0.15070746  0.216736    0.29760306  0.35136623  0.35136623  0.42591199
  0.53351058  0.53351058  0.61718006  0.61718006  0.65074687  0.70228891
  0.81705364  0.81705364  1.09356262  1.09356262  1.13254334  1.33558346
  1.33735078  1.33735078  1.58274034  1.58274034  1.67539003  1.76416867
  1.76416867  1.89674895  1.97742992  1.97742992  2.07865451  2.07865451
  2.12503613  2.13603021  2.13603021  2.18446831  2.18446831  2.45830033
  2.54286212  2.54286212  2.82520827  2.82520827  2.89237343  3.24390112
  3.25151164  3.25151164  3.38200809  3.38200809  3.43677372  3.43677372
  4.1466152   4.2280429   4.2280429   4.67220912  5.16805005  5.16805005
  5.23280561  5.23280561  5.57225782  5.57225782  5.71770291  5.71770291
  5.8090429   5.80949181  5.80949181  5.88087249  5.88087249  5.9277388
  5.9277388   6.134694    6.134694    6.25854365  6.71814365  6.77180491
  6.77180491  6.89634828  6.89634828  7.06798284  7.06798284  7.35772515
  7.35772515  7.57359967  7.86127604  7.86127604  8.02934072  8.49264537
  8.49264537  8.62173465  8.62173465  8.90574296  8.90574296  8.9091343
  9.18129493  9.18129493  9.98435343  9.98435343 10.10617484 10.13199912
 10.13199912 11.7233898  11.89133133 11.89133133 17.78138629 19.19338701]
E1 = -41.74920228376565  Ecoul = 17.63075416821408
cycle= 13 E= -15.0888907242027  delta_E= -6.75e-09  |g|= 1.42e-06  |ddm|= 0.000306
    CPU time for cycle= 13     64.35 sec, wall time      0.53 sec
  HOMO = -0.345155044060048  LUMO = 0.150707513752856
                  Roothaan           | alpha              | beta
  Highest 2-occ = -0.513884874988653 | -0.524828811012599 | -0.502941833072547
  Lowest 0-occ =   0.150707513752856 |  0.132169445816992 |  0.169245137870037
  1-occ =         -0.345155044060048 |  -0.67236291782826 | -0.0179485788178588
  Roothaan mo_energy =
[-1.25290052 -0.62699502 -0.51388487 -0.51388487 -0.34515504  0.15070751
  0.15070751  0.2167359   0.29760295  0.35136603  0.35136603  0.4259123
  0.53351078  0.53351078  0.61717982  0.61717982  0.65074683  0.70228865
  0.81705335  0.81705335  1.09356281  1.09356281  1.13254334  1.33558365
  1.33735112  1.33735112  1.58274001  1.58274001  1.67538922  1.76416842
  1.76416842  1.89674857  1.97742963  1.97742963  2.0786538   2.0786538
  2.12503618  2.13602974  2.13602974  2.18446839  2.18446839  2.45830063
  2.54286195  2.54286195  2.82520839  2.82520839  2.89237356  3.24390135
  3.25151169  3.25151169  3.38200852  3.38200852  3.43677439  3.43677439
  4.14661496  4.22804278  4.22804278  4.6722093   5.16804973  5.16804973
  5.23280529  5.23280529  5.57225753  5.57225753  5.71770277  5.71770277
  5.80904194  5.80949131  5.80949131  5.88087126  5.88087126  5.92773779
  5.92773779  6.13469402  6.13469402  6.25854341  6.71814344  6.77180449
  6.77180449  6.89634823  6.89634823  7.06798262  7.06798262  7.35772533
  7.35772533  7.57359934  7.86127574  7.86127574  8.02934078  8.49264557
  8.49264557  8.62173522  8.62173522  8.90574283  8.90574283  8.90913477
  9.18129533  9.18129533  9.98435367  9.98435367 10.10617526 10.13199898
 10.13199898 11.7233902  11.89133161 11.89133161 17.7813859  19.19338683]
E1 = -41.74920262207386  Ecoul = 17.630754506559814
cycle= 14 E= -15.0888907241652  delta_E= 3.75e-11  |g|= 4.59e-06  |ddm|= 2.2e-05
    CPU time for cycle= 14    117.56 sec, wall time      0.93 sec
  HOMO = -0.345154997505594  LUMO = 0.1507075781902
                  Roothaan           | alpha              | beta
  Highest 2-occ = -0.513884995706658 | -0.524828493423864 | -0.502941497989445
  Lowest 0-occ =     0.1507075781902 |  0.132169609545822 |  0.169245546834585
  1-occ =         -0.345154997505594 | -0.672362067079893 | -0.0179472234649462
  Roothaan mo_energy =
[-1.25290061 -0.6269946  -0.513885   -0.513885   -0.345155    0.15070758
  0.15070758  0.216736    0.29760336  0.35136633  0.35136633  0.42591181
  0.53351039  0.53351039  0.61718013  0.61718013  0.65074669  0.70228883
  0.8170537   0.8170537   1.09356233  1.09356233  1.13254318  1.33558321
  1.33735054  1.33735054  1.58274072  1.58274072  1.67539049  1.76416892
  1.76416892  1.89674909  1.97743003  1.97743003  2.07865473  2.07865473
  2.12503613  2.13603059  2.13603059  2.18446779  2.18446779  2.45829995
  2.54286198  2.54286198  2.82520763  2.82520763  2.89237325  3.24390082
  3.25151083  3.25151083  3.3820077   3.3820077   3.43677332  3.43677332
  4.14661507  4.22804279  4.22804279  4.67220913  5.16805055  5.16805055
  5.23280588  5.23280588  5.57225859  5.57225859  5.7177032   5.7177032
  5.80904339  5.80949241  5.80949241  5.88087283  5.88087283  5.92773911
  5.92773911  6.13469413  6.13469413  6.25854379  6.71814376  6.77180562
  6.77180562  6.89634717  6.89634717  7.0679818   7.0679818   7.35772449
  7.35772449  7.57359966  7.86127605  7.86127605  8.02933989  8.49264491
  8.49264491  8.62173428  8.62173428  8.90574153  8.90574153  8.90913418
  9.18129394  9.18129394  9.98435269  9.98435269 10.10617436 10.13199769
 10.13199769 11.72338923 11.89133068 11.89133068 17.78138509 19.19338775]
E1 = -41.74920412635457  Ecoul = 17.630756010808092
Extra cycle  E= -15.0888907241976  delta_E= -3.24e-11  |g|= 2.29e-06  |ddm|= 1.55e-05
    CPU time for scf_cycle   1493.02 sec, wall time     12.27 sec
    CPU time for SCF   1493.05 sec, wall time     12.27 sec
converged SCF energy = -15.0888907241976
