#INFO: **** input file is /home/nkousuke/lustre/toBeSync/turboRVB/05turbo-genius-development/turbogenius_paper/04data/sanity_checks/03pyscf_HF_turbo_VMC_via_trexio/00open_boundary/results/SiH2_triplet/pyscf-HF-workflow/run.py ****

from pyscf_wrapper import Pyscf_wrapper

# input variables
pyscf_chkfile="pyscf.chk"
structure_file="SiH2_triplet.xyz"

# input variables
omp_num_threads=128
charge=0
spin=2
basis="ccecp-ccpvqz"
ecp="ccecp"
scf_method="HF"
dft_xc="NA"
solver_newton=False
MP2_flag=False
CCSD_flag=False
pyscf_output="out.pyscf"
twist_average=False
exp_to_discard=0.0
kpt=[0.0, 0.0, 0.0]
kpt_grid=[1, 1, 1]
smearing_method="fermi"
smearing_sigma=0.0

pyscf_calc=Pyscf_wrapper(
                        structure_file=structure_file,
                        chkfile=pyscf_chkfile,
                        )

pyscf_calc.run_pyscf(
                  omp_num_threads=omp_num_threads,
                  charge=charge,
                  spin=spin,
                  basis=basis,
                  ecp=ecp,
                  scf_method=scf_method,
                  dft_xc=dft_xc,
                  solver_newton=solver_newton,
                  MP2_flag=MP2_flag,
                  CCSD_flag=CCSD_flag,
                  pyscf_output=pyscf_output,
                  twist_average=twist_average,
                  exp_to_discard=exp_to_discard,
                  kpt=kpt,
                  kpt_grid=kpt_grid,
                  smearing_method=smearing_method,
                  smearing_sigma=smearing_sigma
                  )
                #INFO: ******************** input file end ********************


System: uname_result(system='Linux', node='spcc-105', release='5.4.0-66-generic', version='#74-Ubuntu SMP Wed Jan 27 22:54:38 UTC 2021', machine='x86_64', processor='x86_64')  Threads 128
Python 3.7.3 (default, Mar 27 2019, 22:11:17) 
[GCC 7.3.0]
numpy 1.20.1  scipy 1.7.3
Date: Mon Dec 19 18:05:53 2022
PySCF version 2.0.1
PySCF path  /home/nkousuke/application/anaconda3/lib/python3.7/site-packages/pyscf

[CONFIG] conf_file /home/nkousuke/.pyscf_conf.py
[INPUT] verbose = 5
[INPUT] max_memory = 507605.09375 
[INPUT] num. atoms = 3
[INPUT] num. electrons = 6
[INPUT] charge = 0
[INPUT] spin (= nelec alpha-beta = 2S) = 2
[INPUT] symmetry False subgroup None
[INPUT] Mole.unit = A
[INPUT]  1 Si     0.000000000000   0.000000000000   0.094518900000 AA    0.000000000000   0.000000000000   0.178614834595 Bohr
[INPUT]  2 H      0.000000000000   1.264688700000  -0.661632300000 AA    0.000000000000   2.389915275832  -1.250303842166 Bohr
[INPUT]  3 H      0.000000000000  -1.264688700000  -0.661632300000 AA    0.000000000000  -2.389915275832  -1.250303842166 Bohr
[INPUT] ---------------- BASIS SET ---------------- 
[INPUT] l, kappa, [nprim/nctr], expnt,             c_1 c_2 ...
[INPUT] H
[INPUT] 0    0    [8    /1   ]  23.843185         0.0041149
                                10.212443         0.0104644
                                4.374164          0.0280111
                                1.873529          0.0758862
                                0.802465          0.1821062
                                0.343709          0.3485214
                                0.147217          0.3782313
                                0.063055          0.1164241
[INPUT] 0    0    [1    /1   ]  0.081856             1
[INPUT] 0    0    [1    /1   ]  0.233254             1
[INPUT] 0    0    [1    /1   ]  0.664673             1
[INPUT] 1    0    [1    /1   ]  0.284469             1
[INPUT] 1    0    [1    /1   ]  0.847159             1
[INPUT] 1    0    [1    /1   ]  2.522868             1
[INPUT] 2    0    [1    /1   ]  0.665279             1
[INPUT] 2    0    [1    /1   ]  2.048739             1
[INPUT] 3    0    [1    /1   ]  1.42146              1
[INPUT] Si
[INPUT] 0    0    [10   /1   ]  9.998274          0.002894
                                5.517644          -0.014523
                                3.044965          0.077634
                                1.680393          -0.224022
                                0.927341          -0.14908
                                0.511762          0.085944
                                0.282421          0.355394
                                0.155857          0.445219
                                0.086011          0.26723
                                0.047466          0.060787
[INPUT] 0    0    [1    /1   ]  0.488504             1
[INPUT] 0    0    [1    /1   ]  0.199457             1
[INPUT] 0    0    [1    /1   ]  0.081439             1
[INPUT] 1    0    [10   /1   ]  5.027868          -0.003242
                                2.867751          0.010649
                                1.635683          -0.049761
                                0.932947          -1.7e-05
                                0.532126          0.10606
                                0.303509          0.236202
                                0.173113          0.310665
                                0.098739          0.294696
                                0.056318          0.153898
                                0.032122          0.042337
[INPUT] 1    0    [1    /1   ]  1.22579              1
[INPUT] 1    0    [1    /1   ]  0.501364             1
[INPUT] 1    0    [1    /1   ]  0.205064             1
[INPUT] 2    0    [1    /1   ]  0.997003             1
[INPUT] 2    0    [1    /1   ]  0.365942             1
[INPUT] 2    0    [1    /1   ]  0.134316             1
[INPUT] 3    0    [1    /1   ]  0.549116             1
[INPUT] 3    0    [1    /1   ]  0.214998             1
[INPUT] 4    0    [1    /1   ]  0.459547             1

nuclear repulsion = 3.08224792402191
number of shells = 34
number of NR pGTOs = 164
number of NR cGTOs = 114
basis = ccecp-ccpvqz
ecp = ccecp
CPU time:         5.50


******** <class 'pyscf.scf.rohf.ROHF'> ********
method = ROHF-RHF
initial guess = minao
damping factor = 0
level_shift factor = 0
DIIS = <class 'pyscf.scf.diis.CDIIS'>
diis_start_cycle = 1
diis_space = 8
SCF conv_tol = 1e-09
SCF conv_tol_grad = None
SCF max_cycles = 200
direct_scf = True
direct_scf_tol = 1e-13
chkfile to save SCF result = pyscf.chk
max_memory 507605 MB (current use 105 MB)
num. doubly occ = 2  num. singly occ = 2
Set gradient conv threshold to 3.16228e-05
E1 = -12.505000519661856  Ecoul = 4.9669279210402735
init E= -4.45582467459967
cond(S) = 16891.216427487834
    CPU time for initialize scf    110.48 sec, wall time      1.01 sec
  HOMO = -0.0918913876161235  LUMO = 0.0936882004318754
                  Roothaan           | alpha              | beta
  Highest 2-occ = -0.429846591489577 | -0.429846591489576 | -0.429846591489576
  Lowest 0-occ =  0.0936882004318754 | 0.0936882004318754 | 0.0936882004318754
  1-occ =         -0.183273064654558 | -0.183273064654556 | -0.183273064654556
  1-occ =         -0.0918913876161235 | -0.0918913876161232 | -0.0918913876161232
  Roothaan mo_energy =
[-0.76829587 -0.42984659 -0.18327306 -0.09189139  0.0936882   0.13254667
  0.18696903  0.2127791   0.28178536  0.28458929  0.2978198   0.29965415
  0.30563296  0.35815092  0.36803343  0.46974015  0.56333425  0.66577812
  0.7116748   0.71427981  0.78264059  0.79437963  0.82294651  0.84625957
  0.8720267   0.90319646  0.91290193  0.93883647  0.93955407  1.01456858
  1.02794279  1.0912737   1.1355491   1.27191773  1.29817692  1.38140473
  1.38145529  1.40558115  1.41629219  1.66324869  1.8293136   1.94802045
  1.98975835  2.06829973  2.09185958  2.1096813   2.1466191   2.15028671
  2.22657439  2.26989475  2.27322396  2.30002475  2.30536811  2.39507166
  2.40293225  2.40817531  2.47126528  2.52127596  2.57306549  2.61333059
  2.62377773  2.67326014  2.70335382  2.75727351  2.7773063   2.81696619
  2.84634617  2.86887832  2.88481204  2.95877312  3.48968896  3.5354939
  3.55267856  3.55844119  3.57270123  3.63425727  3.68344223  3.81869972
  5.13860025  5.2637934   5.36879627  6.1469911   6.15125292  6.18843909
  6.20477548  6.33461837  6.46046429  6.4685347   6.54917309  6.59017804
  6.65543011  6.66535775  6.71934953  6.80410555  6.90333392  6.94896134
  7.09630247  8.24156716  8.28128068  8.28759126  8.29952836  8.50173694
  8.50872728  8.55963392  8.60479162  8.84240066  8.86156957  8.88521347
  8.95900429  9.07613931  9.09183978  9.19176413  9.71535114 10.87058575]
E1 = -12.652639498346822  Ecoul = 4.752305960123726
cycle= 1 E= -4.81808561420118  delta_E= -0.362  |g|= 0.136  |ddm|= 2.13
    CPU time for cycle= 1    129.86 sec, wall time      1.12 sec
  HOMO = -0.133920461258342  LUMO = 0.11571112129684
                  Roothaan           | alpha              | beta
  Highest 2-occ = -0.521050991892446 | -0.546035772112341 | -0.496066211672555
  Lowest 0-occ =    0.11571112129684 |  0.103551797957678 |  0.127885514007211
  1-occ =         -0.204946449384905 | -0.401885872224628 | -0.00190063960093565
  1-occ =         -0.133920461258342 | -0.307788208362021 |  0.057271147537874
  Roothaan mo_energy =
[-0.71056635 -0.52105099 -0.20494645 -0.13392046  0.11571112  0.14244543
  0.1899008   0.20883364  0.27633671  0.2800542   0.29034068  0.29182114
  0.3066936   0.35974338  0.37252827  0.4808555   0.570805    0.66258338
  0.71115076  0.71216403  0.77495745  0.78654528  0.81857757  0.83924783
  0.86749722  0.89331273  0.90642275  0.92690861  0.93064786  1.01297081
  1.02449644  1.08960177  1.12699815  1.27338889  1.29960677  1.35863865
  1.36857555  1.42068086  1.42598263  1.64699203  1.8212676   1.95075015
  1.99340585  2.0741234   2.09100944  2.10515949  2.14217646  2.1489932
  2.21790758  2.25064688  2.25082717  2.2927671   2.29278893  2.38898218
  2.39404496  2.39586435  2.46980819  2.51455357  2.56317407  2.60622235
  2.61435127  2.65428422  2.69074169  2.76087491  2.77990046  2.81537982
  2.84346042  2.86400341  2.882554    2.95812272  3.48976153  3.5351508
  3.55512671  3.56099187  3.5718078   3.62737985  3.6813567   3.8200302
  5.114599    5.24477395  5.36543436  6.16424272  6.16868126  6.2059426
  6.2218388   6.353144    6.47880835  6.48889156  6.56769328  6.61170027
  6.67556084  6.68769905  6.7458624   6.8294991   6.92246815  6.96381946
  7.11494028  8.2592149   8.29772657  8.30599218  8.31603577  8.51623646
  8.52268634  8.57031007  8.616945    8.8617916   8.88041909  8.90306511
  8.97681951  9.08832923  9.0975796   9.20913974  9.73915954 10.86190967]
E1 = -12.801434198599438  Ecoul = 4.87771015148362
cycle= 2 E= -4.8414761230939  delta_E= -0.0234  |g|= 0.0467  |ddm|= 0.94
    CPU time for cycle= 2     94.77 sec, wall time      0.75 sec
  HOMO = -0.0986976782136757  LUMO = 0.131438370771916
                  Roothaan           | alpha              | beta
  Highest 2-occ = -0.496123223933584 | -0.520965976803728 |  -0.47905468130759
  Lowest 0-occ =   0.131438370771916 |  0.119366770138993 |  0.138809743687585
  1-occ =         -0.170407449754645 | -0.401658922180241 | 0.0448360499278617
  1-occ =         -0.0986976782136757 | -0.298153248627179 | 0.0939594199409068
  Roothaan mo_energy =
[-0.6725524  -0.49612322 -0.17040745 -0.09869768  0.13143837  0.15997688
  0.20181116  0.21599008  0.29784498  0.29813549  0.30743202  0.30896008
  0.31201012  0.37655254  0.38629743  0.50038059  0.59110209  0.68204881
  0.73049302  0.73073166  0.79499994  0.80727488  0.84236403  0.86259925
  0.88744037  0.91527382  0.93720492  0.95665376  0.95776777  1.03820172
  1.04643576  1.11071797  1.14336756  1.30359957  1.32676176  1.39664552
  1.40475637  1.45142706  1.45283207  1.68021645  1.85819957  1.98355111
  2.03279513  2.11500202  2.13247776  2.13849713  2.1766313   2.18317171
  2.25808351  2.28961602  2.29365379  2.33099904  2.33250781  2.42527204
  2.43068009  2.43207751  2.50089693  2.54940503  2.60271483  2.63732301
  2.66361936  2.70212941  2.732013    2.78768794  2.80651496  2.84205979
  2.87443191  2.90216404  2.92144937  2.98641403  3.52555999  3.57131783
  3.5905615   3.59854927  3.60759452  3.66863877  3.72061285  3.86339336
  5.1723158   5.30115059  5.41884713  6.20023933  6.20466452  6.24178353
  6.25775521  6.39332489  6.5190702   6.53184215  6.61526769  6.65368237
  6.72478096  6.73381247  6.79361074  6.87780759  6.9708945   7.01048874
  7.16328919  8.30068597  8.33821321  8.34782283  8.35736091  8.55853335
  8.56466012  8.61095972  8.6581668   8.90604161  8.92417286  8.94744058
  9.02168854  9.12971564  9.14073802  9.26359707  9.79310405 10.9233982 ]
E1 = -12.790115797763521  Ecoul = 4.862729406931104
cycle= 3 E= -4.84513846681051  delta_E= -0.00366  |g|= 0.0133  |ddm|= 0.151
    CPU time for cycle= 3     98.29 sec, wall time      0.79 sec
  HOMO = -0.102886267723503  LUMO = 0.130653221054303
                  Roothaan           | alpha              | beta
  Highest 2-occ = -0.501232071903632 | -0.519715989929339 | -0.483874421057767
  Lowest 0-occ =   0.130653221054303 |  0.120237860267457 |  0.139561366470919
  1-occ =         -0.178585452381968 | -0.412192664059507 | 0.0531848946256589
  1-occ =         -0.102886267723503 | -0.303135936182663 | 0.0979481718913952
  Roothaan mo_energy =
[-0.6724472  -0.50123207 -0.17858545 -0.10288627  0.13065322  0.15862827
  0.19955676  0.21572126  0.29503188  0.29635795  0.30341979  0.30343536
  0.31030914  0.37449071  0.38452029  0.49764364  0.58881024  0.68084978
  0.72837667  0.728468    0.79161143  0.80363083  0.8382032   0.85958941
  0.88361243  0.91138402  0.93040828  0.95077399  0.95179481  1.03487526
  1.04262737  1.10751194  1.14155206  1.29901556  1.3232597   1.38875005
  1.39577072  1.45035291  1.4512435   1.67264475  1.84971575  1.980231
  2.02829645  2.10880863  2.12622997  2.13378722  2.17074333  2.17910459
  2.25104705  2.28249989  2.28461626  2.32396964  2.3242198   2.41646453
  2.42458632  2.42639758  2.49776769  2.54437396  2.5956648   2.63460447
  2.65244161  2.69125425  2.72426468  2.78828359  2.80698659  2.84212685
  2.87102813  2.89675214  2.91669435  2.98554086  3.52193082  3.56653549
  3.58702294  3.59607183  3.60313667  3.6612245   3.71637567  3.8581542
  5.15695637  5.28959455  5.41101428  6.20276814  6.20722515  6.24420449
  6.26030987  6.39462384  6.520088    6.53252178  6.61465921  6.65439573
  6.72283912  6.7346338   6.7933254   6.87693189  6.97192866  7.01142073
  7.16318332  8.30555236  8.3431706   8.35254712  8.362453    8.56432786
  8.57039521  8.61671207  8.66377583  8.90970141  8.92794125  8.9512257
  9.02517907  9.13382583  9.14335176  9.26238355  9.79500287 10.91191132]
E1 = -12.793848726447766  Ecoul = 4.866079276247074
cycle= 4 E= -4.84552152617878  delta_E= -0.000383  |g|= 0.00334  |ddm|= 0.0716
    CPU time for cycle= 4     83.72 sec, wall time      0.69 sec
  HOMO = -0.10126381143693  LUMO = 0.130516929062437
                  Roothaan           | alpha              | beta
  Highest 2-occ =  -0.50129126047899 | -0.518086932801986 |  -0.48398035115922
  Lowest 0-occ =   0.130516929062437 |  0.121109154775367 |  0.140085316703748
  1-occ =         -0.177932214092351 | -0.413741434705395 |  0.057957536491603
  1-occ =          -0.10126381143693 | -0.303508628988056 |  0.101263771872558
  Roothaan mo_energy =
[-0.67127386 -0.50129126 -0.17793221 -0.10126381  0.13051693  0.15897658
  0.19930802  0.21566175  0.29523766  0.29661096  0.30222541  0.30370895
  0.31104355  0.3748958   0.38440515  0.49748814  0.58885604  0.6806701
  0.72815074  0.72846711  0.79177046  0.80390992  0.83828351  0.85978697
  0.88389759  0.91175458  0.9308352   0.95126352  0.95201373  1.03489208
  1.04279608  1.10755623  1.14172052  1.2991112   1.3230991   1.38986652
  1.39642471  1.45014009  1.45111228  1.67334474  1.85004842  1.98011915
  2.0282146   2.10874029  2.12653103  2.13400292  2.17107243  2.17904568
  2.25143613  2.28368596  2.28585758  2.32448379  2.32471182  2.41713468
  2.42521514  2.42638913  2.49781103  2.54464905  2.59623617  2.63489916
  2.65315631  2.69227579  2.7249007   2.78812553  2.80684967  2.84205207
  2.87114398  2.89709834  2.91693625  2.98549713  3.52203205  3.56665585
  3.58718818  3.59598391  3.60324439  3.66159157  3.71642525  3.85821145
  5.15833622  5.29071951  5.41147455  6.20227781  6.20672776  6.24371395
  6.25982001  6.39417567  6.51966528  6.53210618  6.61438111  6.65394854
  6.72255383  6.73416641  6.79285127  6.87653941  6.97155423  7.0111709
  7.16286236  8.30499749  8.34264194  8.3519857   8.36191685  8.56377896
  8.5698559   8.61623202  8.66326888  8.90920407  8.92743778  8.95074598
  9.02470388  9.13343366  9.14318565  9.26228202  9.79453325 10.91268149]
E1 = -12.793102008113237  Ecoul = 4.865313670198347
cycle= 5 E= -4.84554041389298  delta_E= -1.89e-05  |g|= 0.000733  |ddm|= 0.00966
    CPU time for cycle= 5    101.10 sec, wall time      0.80 sec
  HOMO = -0.101319013117716  LUMO = 0.130597963745145
                  Roothaan           | alpha              | beta
  Highest 2-occ = -0.500996393878513 |  -0.51792517121804 | -0.484023217793364
  Lowest 0-occ =   0.130597963745145 |  0.121135165950732 |  0.140090428080246
  1-occ =         -0.178217317570441 | -0.414251731000172 | 0.0579814038881271
  1-occ =         -0.101319013117716 | -0.303980504524528 |  0.101543688414222
  Roothaan mo_energy =
[-0.67113874 -0.50099639 -0.17821732 -0.10131901  0.13059796  0.15888601
  0.19959003  0.21580944  0.2953034   0.29644573  0.30223989  0.30388546
  0.31106     0.37485034  0.38447078  0.49764004  0.58892433  0.68084484
  0.72831587  0.72857303  0.79178428  0.80391607  0.83843677  0.85987832
  0.88385872  0.91172128  0.93083173  0.95123168  0.95208051  1.03512587
  1.04291997  1.10768744  1.14164706  1.2992996   1.32337988  1.38961394
  1.39644231  1.45040349  1.45147916  1.67314123  1.85021519  1.98035886
  2.02854413  2.10900324  2.12671694  2.13415255  2.17125618  2.17922068
  2.2515565   2.2835689   2.28574049  2.32453261  2.32468996  2.41704795
  2.4251761   2.42670317  2.49812279  2.5447232   2.59641188  2.63494331
  2.65325926  2.6923728   2.72505265  2.78853639  2.80723231  2.84238825
  2.87129635  2.89727911  2.91722079  2.9858129   3.5222606   3.56688337
  3.58734134  3.59637064  3.60350777  3.66161195  3.7167685   3.85851477
  5.15843192  5.2908326   5.41172126  6.2028309   6.20728     6.24423824
  6.260372    6.39475647  6.52016528  6.53269757  6.61489128  6.6544233
  6.72306922  6.73467149  6.79343504  6.87705362  6.97218061  7.01170598
  7.16338166  8.30563357  8.34329727  8.35264754  8.36263121  8.56447182
  8.57054361  8.61695523  8.66388635  8.90983961  8.9280817   8.95139928
  9.02533824  9.13404879  9.14377242  9.26282642  9.7951835  10.91296732]
E1 = -12.79306408131869  Ecoul = 4.8652747009361486
cycle= 6 E= -4.84554145636063  delta_E= -1.04e-06  |g|= 0.000267  |ddm|= 0.00388
    CPU time for cycle= 6     81.68 sec, wall time      0.65 sec
  HOMO = -0.101194270639598  LUMO = 0.130620987902995
                  Roothaan           | alpha              | beta
  Highest 2-occ = -0.500969744508387 | -0.517933219278468 | -0.484026704471273
  Lowest 0-occ =   0.130620987902995 |  0.121147724841886 |   0.14007883265831
  1-occ =         -0.178096260568321 | -0.414265512180132 | 0.0580710488076639
  1-occ =         -0.101194270639598 | -0.304026010856418 |  0.101688105259461
  Roothaan mo_energy =
[-0.67113775 -0.50096974 -0.17809626 -0.10119427  0.13062099  0.15893601
  0.1995768   0.21581644  0.29535715  0.29648058  0.30215298  0.30396815
  0.31113072  0.37489678  0.3844924   0.49767624  0.5889642   0.68086875
  0.72833935  0.72860869  0.79181723  0.80395836  0.83849045  0.85992257
  0.88392393  0.91177692  0.93090029  0.95129568  0.95212856  1.03515437
  1.04296528  1.10772129  1.14169209  1.29934509  1.32339971  1.38972736
  1.39652706  1.45042816  1.45151314  1.67323953  1.85026957  1.98039769
  2.0285834   2.10905401  2.12678888  2.13420577  2.17130472  2.17926786
  2.2516184   2.28368909  2.2858505   2.32459902  2.32480427  2.41715573
  2.42528104  2.42674813  2.49816214  2.54478825  2.59648736  2.63500805
  2.65335624  2.69246144  2.72511988  2.78856156  2.80726056  2.84242175
  2.8713535   2.89735156  2.91727012  2.98585443  3.52231696  3.56694085
  3.58739761  3.59640924  3.60356133  3.66169698  3.71681079  3.85856751
  5.15855178  5.29092885  5.41180955  6.20285895  6.20730756  6.24426875
  6.26040045  6.39478531  6.52020381  6.53272966  6.6149419   6.65446615
  6.72311322  6.73472384  6.79346611  6.87709652  6.97223039  7.01176498
  7.16343993  8.30568155  8.34334372  8.35269308  8.36267628  8.56452422
  8.57059563  8.61700809  8.66394811  8.90988923  8.92812882  8.95145255
  9.02539351  9.1341037   9.14383456  9.26289651  9.79524775 10.9130581 ]
E1 = -12.793001135404717  Ecoul = 4.865211625347641
cycle= 7 E= -4.84554158603516  delta_E= -1.3e-07  |g|= 4.58e-05  |ddm|= 0.00132
    CPU time for cycle= 7     77.71 sec, wall time      0.61 sec
  HOMO = -0.101183899939986  LUMO = 0.13061682397923
                  Roothaan           | alpha              | beta
  Highest 2-occ = -0.500973189577236 |  -0.51792206504351 | -0.484028278150305
  Lowest 0-occ =    0.13061682397923 |  0.121151588160974 |   0.14008141850466
  1-occ =         -0.178117428971192 | -0.414286146033445 | 0.0580456948449263
  1-occ =         -0.101183899939986 |  -0.30408016901153 |  0.101702323917748
  Roothaan mo_energy =
[-0.67112662 -0.50097319 -0.17811743 -0.1011839   0.13061682  0.15893032
  0.1995747   0.21581379  0.29535441  0.29647829  0.30213192  0.30397132
  0.31113135  0.37489118  0.3844898   0.49766994  0.58895855  0.68086449
  0.72833251  0.72860494  0.79181201  0.80395417  0.8384851   0.85991736
  0.8839204   0.9117724   0.93089297  0.95128839  0.95212241  1.03514908
  1.04296074  1.10771576  1.14168769  1.29933783  1.32339421  1.38971916
  1.39651954  1.45042066  1.45150559  1.67323167  1.85026379  1.98039009
  2.02857606  2.10904467  2.12677993  2.13419848  2.1712979   2.17925935
  2.25160905  2.28367942  2.28583909  2.32458995  2.32479743  2.417149
  2.42527478  2.42674149  2.49815558  2.54477933  2.59648004  2.63499741
  2.65334813  2.69245072  2.72511046  2.78855403  2.80725251  2.84241569
  2.87134541  2.89734424  2.91726193  2.98584737  3.52230903  3.5669323
  3.58738857  3.59640123  3.60355297  3.66168766  3.7168026   3.85855775
  5.1585421   5.29091528  5.41179807  6.20284872  6.20729717  6.24425842
  6.26039027  6.39477513  6.52019348  6.53271952  6.61493024  6.65445492
  6.72310199  6.73471246  6.79345389  6.87708407  6.97221928  7.01175313
  7.16342898  8.30566882  8.34333205  8.35268105  8.36266582  8.56451123
  8.57058267  8.61699814  8.66393573  8.90987656  8.92811619  8.95144174
  9.02538225  9.13409245  9.14382304  9.26288355  9.79523439 10.91304637]
E1 = -12.793005798657097  Ecoul = 4.8652162851948555
cycle= 8 E= -4.84554158944033  delta_E= -3.41e-09  |g|= 8.26e-06  |ddm|= 0.000183
    CPU time for cycle= 8    119.45 sec, wall time      0.95 sec
  HOMO = -0.101188135718832  LUMO = 0.130616513356711
                  Roothaan           | alpha              | beta
  Highest 2-occ = -0.500975003974768 | -0.517924316512622 | -0.484025609886871
  Lowest 0-occ =   0.130616513356711 |  0.121151011684084 |  0.140081340848117
  1-occ =         -0.178117802764101 | -0.414279625597733 | 0.0580404709934007
  1-occ =         -0.101188135718832 | -0.304082328917877 |   0.10170409369101
  Roothaan mo_energy =
[-0.67113061 -0.500975   -0.1781178  -0.10118814  0.13061651  0.15892931
  0.19957401  0.21581359  0.29535357  0.29647752  0.30213456  0.30397114
  0.31113116  0.37489023  0.38448854  0.4976699   0.58895748  0.68086395
  0.72833203  0.72860429  0.79181087  0.80395295  0.83848391  0.85991651
  0.88391935  0.91177133  0.93089178  0.95128718  0.95212106  1.03514835
  1.04295998  1.10771508  1.14168645  1.29933691  1.32339357  1.38971676
  1.3965179   1.45042036  1.45150508  1.67322956  1.85026218  1.98038922
  2.028575    2.10904368  2.12677866  2.13419717  2.17129629  2.17925847
  2.25160732  2.28367734  2.28583669  2.32458828  2.32479567  2.4171472
  2.42527299  2.4267404   2.49815485  2.5447779   2.59647858  2.63499622
  2.65334632  2.69244862  2.72510887  2.78855394  2.80725237  2.84241525
  2.87134447  2.89734317  2.91726089  2.98584702  3.52230816  3.56693135
  3.58738742  3.59640078  3.60355204  3.661686    3.7168015   3.85855669
  5.15853979  5.29091302  5.41179676  6.20284897  6.20729742  6.24425873
  6.26039053  6.3947751   6.52019353  6.53271936  6.61492998  6.65445496
  6.72310162  6.7347125   6.79345367  6.87708387  6.97221903  7.0117529
  7.16342884  8.30566919  8.34333246  8.35268143  8.36266626  8.56451165
  8.57058309  8.61699857  8.66393613  8.90987676  8.92811639  8.95144193
  9.0253824   9.13409271  9.14382296  9.26288309  9.79523428 10.91304453]
E1 = -12.793007431437486  Ecoul = 4.865217917907998
cycle= 9 E= -4.84554158950758  delta_E= -6.72e-11  |g|= 1.31e-06  |ddm|= 4.51e-05
    CPU time for cycle= 9     81.11 sec, wall time      0.65 sec
  HOMO = -0.101188419542855  LUMO = 0.13061640309654
                  Roothaan           | alpha              | beta
  Highest 2-occ = -0.500975025154206 | -0.517924305156871 | -0.484025745151543
  Lowest 0-occ =    0.13061640309654 |  0.121151187218207 |  0.140081638091167
  1-occ =         -0.178118594263665 | -0.414278854462471 |   0.05804177822479
  1-occ =         -0.101188419542855 | -0.304081964438389 |  0.101705088476363
  Roothaan mo_energy =
[-0.67113032 -0.50097503 -0.17811859 -0.10118842  0.1306164   0.15892912
  0.19957395  0.21581364  0.29535344  0.29647726  0.30213444  0.30397101
  0.311131    0.37489005  0.38448853  0.49766977  0.58895735  0.68086392
  0.72833202  0.7286042   0.7918106   0.80395266  0.83848373  0.85991635
  0.88391915  0.91177107  0.9308915   0.9512868   0.95212081  1.03514829
  1.04295982  1.10771499  1.14168622  1.29933679  1.32339354  1.38971605
  1.39651755  1.45042036  1.45150511  1.67322909  1.85026187  1.98038912
  2.02857488  2.10904356  2.12677841  2.13419692  2.17129598  2.17925835
  2.25160697  2.28367677  2.28583605  2.32458795  2.32479525  2.41714675
  2.42527259  2.42674031  2.49815478  2.54477762  2.59647827  2.63499601
  2.65334591  2.69244812  2.72510853  2.78855402  2.80725244  2.84241526
  2.87134434  2.89734298  2.91726075  2.98584706  3.52230807  3.5669312
  3.58738722  3.59640079  3.60355191  3.66168569  3.7168014   3.85855656
  5.15853921  5.29091253  5.41179652  6.20284918  6.20729763  6.24425893
  6.26039074  6.39477527  6.52019367  6.53271951  6.61493007  6.65445511
  6.72310168  6.73471266  6.7934538   6.87708397  6.97221919  7.01175302
  7.16342894  8.30566948  8.34333274  8.35268171  8.36266654  8.56451196
  8.57058339  8.61699887  8.66393644  8.909877    8.92811663  8.95144217
  9.02538264  9.13409296  9.14382312  9.26288314  9.79523448 10.91304417]
E1 = -12.793007544035735  Ecoul = 4.865218030504573
Extra cycle  E= -4.84554158950925  delta_E= -1.67e-12  |g|= 3.4e-07  |ddm|= 1.79e-05
    CPU time for scf_cycle   1066.64 sec, wall time      8.72 sec
    CPU time for SCF   1066.69 sec, wall time      8.72 sec
converged SCF energy = -4.84554158950925
