#INFO: **** input file is /home/nkousuke/lustre/toBeSync/turboRVB/05turbo-genius-development/turbogenius_paper/04data/sanity_checks/03pyscf_HF_turbo_VMC_via_trexio/00open_boundary/results/NH2/pyscf-HF-workflow/run.py ****

from pyscf_wrapper import Pyscf_wrapper

# input variables
pyscf_chkfile="pyscf.chk"
structure_file="NH2.xyz"

# input variables
omp_num_threads=128
charge=0
spin=1
basis="ccecp-ccpvqz"
ecp="ccecp"
scf_method="HF"
dft_xc="NA"
solver_newton=False
MP2_flag=False
CCSD_flag=False
pyscf_output="out.pyscf"
twist_average=False
exp_to_discard=0.0
kpt=[0.0, 0.0, 0.0]
kpt_grid=[1, 1, 1]
smearing_method="fermi"
smearing_sigma=0.0

pyscf_calc=Pyscf_wrapper(
                        structure_file=structure_file,
                        chkfile=pyscf_chkfile,
                        )

pyscf_calc.run_pyscf(
                  omp_num_threads=omp_num_threads,
                  charge=charge,
                  spin=spin,
                  basis=basis,
                  ecp=ecp,
                  scf_method=scf_method,
                  dft_xc=dft_xc,
                  solver_newton=solver_newton,
                  MP2_flag=MP2_flag,
                  CCSD_flag=CCSD_flag,
                  pyscf_output=pyscf_output,
                  twist_average=twist_average,
                  exp_to_discard=exp_to_discard,
                  kpt=kpt,
                  kpt_grid=kpt_grid,
                  smearing_method=smearing_method,
                  smearing_sigma=smearing_sigma
                  )
                #INFO: ******************** input file end ********************


System: uname_result(system='Linux', node='spcc-238', release='5.4.0-66-generic', version='#74-Ubuntu SMP Wed Jan 27 22:54:38 UTC 2021', machine='x86_64', processor='x86_64')  Threads 128
Python 3.7.3 (default, Mar 27 2019, 22:11:17) 
[GCC 7.3.0]
numpy 1.20.1  scipy 1.7.3
Date: Mon Dec 19 18:10:44 2022
PySCF version 2.0.1
PySCF path  /home/nkousuke/application/anaconda3/lib/python3.7/site-packages/pyscf

[CONFIG] conf_file /home/nkousuke/.pyscf_conf.py
[INPUT] verbose = 5
[INPUT] max_memory = 506287.9921875 
[INPUT] num. atoms = 3
[INPUT] num. electrons = 7
[INPUT] charge = 0
[INPUT] spin (= nelec alpha-beta = 2S) = 1
[INPUT] symmetry False subgroup None
[INPUT] Mole.unit = A
[INPUT]  1 N      0.000000000000   0.000000000000   0.141660000000 AA    0.000000000000   0.000000000000   0.267698602806 Bohr
[INPUT]  2 H      0.000000000000   0.801390000000  -0.495800000000 AA    0.000000000000   1.514407618965  -0.936926212559 Bohr
[INPUT]  3 H      0.000000000000  -0.801390000000  -0.495800000000 AA    0.000000000000  -1.514407618965  -0.936926212559 Bohr
[INPUT] ---------------- BASIS SET ---------------- 
[INPUT] l, kappa, [nprim/nctr], expnt,             c_1 c_2 ...
[INPUT] N
[INPUT] 0    0    [9    /1   ]  42.693822         -0.0009357
                                19.963207         0.0063295
                                9.3345971         0.0105038
                                4.9278187         -0.1653735
                                2.04092           -0.0005352
                                0.96708           0.2452063
                                0.476131          0.4582128
                                0.211443          0.3641224
                                0.098869          0.0620406
[INPUT] 0    0    [1    /1   ]  1.625001             1
[INPUT] 0    0    [1    /1   ]  0.310826             1
[INPUT] 0    0    [1    /1   ]  0.135764             1
[INPUT] 1    0    [9    /1   ]  18.925871         0.0073505
                                9.225603          0.0292844
                                4.581431          0.0652168
                                2.300164          0.1405153
                                1.154825          0.2328188
                                0.582039          0.2989556
                                0.290535          0.2802507
                                0.145867          0.1527995
                                0.073234          0.0355475
[INPUT] 1    0    [1    /1   ]  1.02075              1
[INPUT] 1    0    [1    /1   ]  0.413103             1
[INPUT] 1    0    [1    /1   ]  0.140736             1
[INPUT] 2    0    [1    /1   ]  3.028459             1
[INPUT] 2    0    [1    /1   ]  1.009895             1
[INPUT] 2    0    [1    /1   ]  0.346233             1
[INPUT] 3    0    [1    /1   ]  2.024747             1
[INPUT] 3    0    [1    /1   ]  0.691129             1
[INPUT] 4    0    [1    /1   ]  1.357512             1
[INPUT] H
[INPUT] 0    0    [8    /1   ]  23.843185         0.0041149
                                10.212443         0.0104644
                                4.374164          0.0280111
                                1.873529          0.0758862
                                0.802465          0.1821062
                                0.343709          0.3485214
                                0.147217          0.3782313
                                0.063055          0.1164241
[INPUT] 0    0    [1    /1   ]  0.081856             1
[INPUT] 0    0    [1    /1   ]  0.233254             1
[INPUT] 0    0    [1    /1   ]  0.664673             1
[INPUT] 1    0    [1    /1   ]  0.284469             1
[INPUT] 1    0    [1    /1   ]  0.847159             1
[INPUT] 1    0    [1    /1   ]  2.522868             1
[INPUT] 2    0    [1    /1   ]  0.665279             1
[INPUT] 2    0    [1    /1   ]  2.048739             1
[INPUT] 3    0    [1    /1   ]  1.42146              1

nuclear repulsion = 5.49789552707821
number of shells = 34
number of NR pGTOs = 160
number of NR cGTOs = 114
basis = ccecp-ccpvqz
ecp = ccecp
CPU time:         5.96


******** <class 'pyscf.scf.rohf.ROHF'> ********
method = ROHF-RHF
initial guess = minao
damping factor = 0
level_shift factor = 0
DIIS = <class 'pyscf.scf.diis.CDIIS'>
diis_start_cycle = 1
diis_space = 8
SCF conv_tol = 1e-09
SCF conv_tol_grad = None
SCF max_cycles = 200
direct_scf = True
direct_scf_tol = 1e-13
chkfile to save SCF result = pyscf.chk
max_memory 506287 MB (current use 106 MB)
num. doubly occ = 3  num. singly occ = 1
Set gradient conv threshold to 3.16228e-05
E1 = -27.090610609021518  Ecoul = 11.193171711992637
init E= -10.3995433699507
cond(S) = 26692.754450303983
    CPU time for initialize scf     94.77 sec, wall time      0.85 sec
  HOMO = -0.265203728299885  LUMO = 0.0844422151506497
                  Roothaan           | alpha              | beta
  Highest 2-occ = -0.382017758694819 |  -0.38201775869482 |  -0.38201775869482
  Lowest 0-occ =  0.0844422151506497 | 0.0844422151506443 | 0.0844422151506443
  1-occ =         -0.265203728299885 | -0.265203728299881 | -0.265203728299881
  Roothaan mo_energy =
[-1.30405431 -0.56379958 -0.38201776 -0.26520373  0.08444222  0.15781577
  0.34057125  0.38865525  0.43392946  0.4460327   0.47758319  0.50999933
  0.57879389  0.62845427  0.67726699  0.88337576  1.01716319  1.04980917
  1.13658297  1.15248058  1.15458606  1.17860566  1.24830923  1.40095185
  1.53761187  1.99365938  2.02662766  2.06538712  2.10323743  2.24494684
  2.29938891  2.39409548  2.39856481  2.46856247  2.48933994  2.53353228
  2.53915345  2.64481714  2.65266943  2.66095571  2.68208533  2.8943655
  2.98042947  3.07601895  3.14535747  3.19581259  3.22566268  3.32795316
  3.36452257  3.68331697  3.90430064  3.92629835  4.07936727  4.22526819
  4.23326341  4.5816696   4.69559913  5.90161037  5.94655035  6.10396025
  6.32666154  6.37298307  6.4421517   6.46710512  6.5292554   6.76633691
  6.80252256  6.82495932  6.95162755  7.08471544  7.17193024  7.24020401
  7.35940435  7.37449298  7.49030336  7.51950198  7.63554329  7.80005586
  7.83891838  7.87614919  8.02393932  8.03248197  8.04277936  8.17198967
  8.259602    8.42011836  8.45676419  8.52092253  8.57346149  8.65690308
  8.76891704  8.77762235  8.83704434  8.95649935  9.06896171  9.10900073
  9.21091569  9.23366354  9.26033192  9.78527368  9.84504688 10.01070488
 10.0661574  10.2945597  10.610107   10.78983588 11.8952978  11.90031061
 12.01177991 12.17928755 12.45509238 12.51414792 14.67866718 19.13546058]
E1 = -27.58290820455455  Ecoul = 11.275742868451186
cycle= 1 E= -10.8092698090252  delta_E= -0.41  |g|=  0.2  |ddm|= 1.93
    CPU time for cycle= 1    125.86 sec, wall time      1.12 sec
  HOMO = -0.188807389236563  LUMO = 0.0975778085855836
                  Roothaan           | alpha              | beta
  Highest 2-occ = -0.489352158868671 | -0.510647828078918 | -0.468056489658421
  Lowest 0-occ =  0.0975778085855836 | 0.0946638514808107 |  0.100491765690362
  1-occ =         -0.188807389236563 | -0.501320828848836 |  0.138310084169632
  Roothaan mo_energy =
[-1.12706028 -0.65419069 -0.48935216 -0.18880739  0.09757781  0.15802023
  0.37034588  0.40763483  0.46640021  0.48268665  0.50324372  0.54796876
  0.57325028  0.6143714   0.67314888  0.87181072  1.01825121  1.06104593
  1.13891284  1.17878712  1.18062366  1.18185287  1.29249441  1.41581598
  1.57556969  2.02272506  2.04757459  2.08205568  2.16185107  2.22814419
  2.28077514  2.3830914   2.40059288  2.45777817  2.47538572  2.53144926
  2.53568386  2.64239558  2.66863246  2.6732815   2.67541156  2.90053976
  3.0118654   3.13265536  3.20678811  3.21386773  3.26042249  3.37326081
  3.43201459  3.70821246  3.91528214  3.98407316  4.10471592  4.24745738
  4.25968245  4.61848467  4.7302011   5.90231563  5.94616814  6.11336035
  6.30595652  6.39373037  6.42851947  6.51915486  6.55203295  6.78503112
  6.84753745  6.85396159  6.96873657  7.10965774  7.18678025  7.270451
  7.38602307  7.40349932  7.51927757  7.53390479  7.61776408  7.78699881
  7.8453066   7.88966497  7.98816505  8.00550984  8.01574712  8.14683415
  8.27617029  8.40480945  8.48828814  8.57416955  8.60194986  8.6586447
  8.8156461   8.82085603  8.84752253  9.00507044  9.12698372  9.18246555
  9.23970401  9.26928239  9.27898419  9.8404627   9.86520759 10.07437274
 10.11663464 10.33629251 10.63560029 10.85400761 11.93364596 11.94179028
 12.06399433 12.22829721 12.51695368 12.58019655 14.72365294 19.20328119]
E1 = -27.69437173190856  Ecoul = 11.375188015634228
cycle= 2 E= -10.8212881891961  delta_E= -0.012  |g|= 0.0372  |ddm|= 0.257
    CPU time for cycle= 2     65.15 sec, wall time      0.54 sec
  HOMO = -0.172882154778924  LUMO = 0.10488401690431
                  Roothaan           | alpha              | beta
  Highest 2-occ = -0.484789919702144 | -0.504690446180057 | -0.464381137765619
  Lowest 0-occ =    0.10488401690431 |  0.102489654386329 |  0.108039018082848
  1-occ =         -0.172882154778924 | -0.499841182190278 |  0.157951572671413
  Roothaan mo_energy =
[-1.10431796 -0.63561051 -0.48478992 -0.17288215  0.10488402  0.16359225
  0.37349434  0.41100431  0.47784202  0.47967743  0.50545339  0.55810013
  0.58602818  0.62741146  0.68511897  0.88120327  1.02863169  1.06966444
  1.14532643  1.1834096   1.18537809  1.19188757  1.29377148  1.43496566
  1.58471226  2.03838542  2.05754955  2.10000952  2.16061915  2.25358195
  2.30001978  2.40447118  2.41820146  2.47513305  2.49171515  2.55221975
  2.55225452  2.65838108  2.68015342  2.68971632  2.6901576   2.91865233
  3.02047091  3.13630257  3.21211891  3.23175922  3.26235334  3.37930181
  3.4353174   3.72207802  3.9416672   3.98721878  4.11999158  4.2668694
  4.27589584  4.63465848  4.75101777  5.92903724  5.97377251  6.13686933
  6.33698251  6.41561751  6.46519119  6.53873932  6.58033116  6.80791873
  6.87429555  6.87434873  7.00031914  7.13948382  7.21161709  7.29727192
  7.41642775  7.42557335  7.53691152  7.55662878  7.64518984  7.81160715
  7.86769172  7.91399085  8.02063106  8.03608859  8.04302929  8.17626709
  8.30109241  8.43201469  8.51292063  8.59141833  8.622583    8.69047454
  8.83644907  8.83863578  8.87571055  9.02394359  9.14372639  9.20057046
  9.26439406  9.28916511  9.30276011  9.868687    9.89617246 10.09634397
 10.14379849 10.36310329 10.66621567 10.87831332 11.96496197 11.96615732
 12.08925966 12.25005074 12.53965366 12.60502232 14.7547245  19.23051586]
E1 = -27.683879338962186  Ecoul = 11.364196995342208
cycle= 3 E= -10.8217868165418  delta_E= -0.000499  |g|= 0.00972  |ddm|= 0.0409
    CPU time for cycle= 3     62.98 sec, wall time      0.50 sec
  HOMO = -0.173086821554459  LUMO = 0.104960053667551
                  Roothaan           | alpha              | beta
  Highest 2-occ = -0.485183785731584 | -0.505717599853301 | -0.464664565477988
  Lowest 0-occ =   0.104960053667551 |  0.102065484469929 |   0.10757075928338
  1-occ =         -0.173086821554459 | -0.503342597919203 |  0.158366692276171
  Roothaan mo_energy =
[-1.10422341 -0.63600396 -0.48518379 -0.17308682  0.10496005  0.16383021
  0.37400163  0.41119037  0.47598105  0.48018792  0.50584748  0.55885502
  0.58619853  0.62785652  0.68492328  0.8817055   1.02870965  1.07015013
  1.14536552  1.18353933  1.18564656  1.19175733  1.29411458  1.43547435
  1.58533319  2.03871188  2.0558369   2.10028095  2.16108475  2.25409217
  2.30064571  2.40510009  2.41917216  2.47615965  2.49257143  2.55221564
  2.55326234  2.6588387   2.68019216  2.69015009  2.69038956  2.91854608
  3.02076748  3.13615834  3.21172047  3.23248797  3.26235598  3.37954127
  3.43566377  3.72232524  3.94197248  3.98824272  4.12006811  4.26711991
  4.27588194  4.63504498  4.75169144  5.92988387  5.97454153  6.13793294
  6.33822611  6.41636965  6.46571036  6.53752358  6.58055374  6.80872141
  6.87456005  6.87557287  7.00143819  7.14000233  7.21346277  7.296977
  7.4167458   7.42577024  7.53837568  7.55645524  7.64748939  7.81322456
  7.8684132   7.91516676  8.02308069  8.03832528  8.04514337  8.17863498
  8.30213747  8.43463018  8.51362644  8.59173779  8.62362621  8.69228672
  8.83711082  8.83949345  8.87826326  9.0242745   9.14461588  9.1991535
  9.26522545  9.29014478  9.30422256  9.86759528  9.89746094 10.09486844
 10.14182051 10.36420953 10.66755638 10.87755904 11.96482531 11.96586303
 12.08865586 12.24970243 12.53910345 12.60434603 14.75489668 19.22793011]
E1 = -27.688451588863135  Ecoul = 11.36870572995202
cycle= 4 E= -10.8218503318329  delta_E= -6.35e-05  |g|= 0.00222  |ddm|= 0.0218
    CPU time for cycle= 4    132.84 sec, wall time      1.07 sec
  HOMO = -0.172065958506595  LUMO = 0.104954861514937
                  Roothaan           | alpha              | beta
  Highest 2-occ = -0.484513483726435 | -0.505239987737925 | -0.463960753740354
  Lowest 0-occ =   0.104954861514937 |  0.102201190817817 |  0.107695969591505
  1-occ =         -0.172065958506595 |  -0.50391460820572 |  0.159568987270532
  Roothaan mo_energy =
[-1.10341357 -0.63531912 -0.48451348 -0.17206596  0.10495486  0.16388676
  0.37415439  0.41132704  0.47577422  0.4803825   0.50612421  0.55924581
  0.5862999   0.62787737  0.6849756   0.88169596  1.02883037  1.07037354
  1.14547517  1.18381878  1.18590292  1.19190186  1.29449591  1.4357171
  1.58573449  2.03888568  2.05624666  2.10048833  2.16179789  2.25420527
  2.30068317  2.405257    2.41933627  2.47625181  2.49259872  2.55253756
  2.55347261  2.65901942  2.68061621  2.6904804   2.69059597  2.91889684
  3.02113456  3.13668502  3.21232707  3.23260325  3.26289911  3.3799683
  3.43622493  3.72270548  3.94253666  3.9886786   4.12054737  4.26760714
  4.27638283  4.63558493  4.75230788  5.93017098  5.97483398  6.13816688
  6.3383324   6.41675584  6.46599165  6.53863764  6.58111255  6.80911736
  6.87548862  6.87606441  7.0019021   7.14057433  7.2139629   7.29771308
  7.41741203  7.42637695  7.53869187  7.55720975  7.64775805  7.81367987
  7.86890852  7.91571679  8.02323347  8.03849576  8.04546082  8.17878945
  8.30258645  8.43482874  8.51418154  8.59242986  8.62419401  8.69265304
  8.83784523  8.84020366  8.87861147  9.02502067  9.14549054  9.20037714
  9.26590098  9.29068776  9.30468033  9.86879121  9.89798857 10.09621527
 10.14312037 10.36494282 10.66826232 10.87865964 11.96564442 11.96686442
 12.08970948 12.25066413 12.54010212 12.60545452 14.75589925 19.22985727]
E1 = -27.685565126790465  Ecoul = 11.36581646006886
cycle= 5 E= -10.8218531396434  delta_E= -2.81e-06  |g|= 0.0009  |ddm|= 0.00457
    CPU time for cycle= 5    108.97 sec, wall time      0.86 sec
  HOMO = -0.172536145978902  LUMO = 0.104911178104219
                  Roothaan           | alpha              | beta
  Highest 2-occ = -0.484922076296325 | -0.505725664444811 |  -0.46443733132684
  Lowest 0-occ =   0.104911178104219 |  0.102155766387643 |  0.107655789086888
  1-occ =         -0.172536145978902 | -0.504526304349494 |  0.159115352981989
  Roothaan mo_energy =
[-1.1037751  -0.63556739 -0.48492208 -0.17253615  0.10491118  0.16386921
  0.37406569  0.41125254  0.47568065  0.48023354  0.50601928  0.55911988
  0.58621466  0.62779152  0.68489807  0.88165146  1.02872988  1.0702441
  1.14538665  1.18366836  1.18574599  1.19178056  1.29432642  1.43554742
  1.58554774  2.03874383  2.05586953  2.10035272  2.16145451  2.25408075
  2.30059727  2.40512619  2.41919274  2.4761425   2.49251159  2.55235232
  2.55333703  2.65888763  2.68036648  2.69028416  2.69045525  2.91869646
  3.02089289  3.13636855  3.21197276  3.23248085  3.26255525  3.37972979
  3.43592807  3.72246684  3.94226463  3.9884368   4.12028068  4.26735379
  4.27608431  4.63526718  4.7520009   5.92999872  5.97465924  6.13794401
  6.33821952  6.41647914  6.46583693  6.53807205  6.58080864  6.80886858
  6.87505091  6.87574517  7.00163428  7.14023095  7.2136962   7.29732522
  7.41705603  7.42605869  7.53847763  7.55677689  7.64760868  7.81345139
  7.86863477  7.91541858  8.02314326  8.03837578  8.04529402  8.17867853
  8.30231735  8.43469581  8.51389585  8.59198888  8.62382591  8.69245721
  8.8374173   8.83978171  8.87837444  9.02455671  9.14503506  9.19981015
  9.26554371  9.29036694  9.30438532  9.86828816  9.89769259 10.09557909
 10.14249464 10.36455371 10.66791049 10.87807214 11.96521247 11.96637514
 12.08921939 12.25013474 12.53952302 12.60487962 14.75540934 19.22902313]
E1 = -27.68663578644213  Ecoul = 11.366886831604944
cycle= 6 E= -10.821853427759  delta_E= -2.88e-07  |g|= 0.000168  |ddm|= 0.00119
    CPU time for cycle= 6     82.95 sec, wall time      0.66 sec
  HOMO = -0.172526041483179  LUMO = 0.104903748455215
                  Roothaan           | alpha              | beta
  Highest 2-occ = -0.484946466023397 | -0.505581003554328 | -0.464284872449686
  Lowest 0-occ =   0.104903748455215 |  0.102157459788996 |  0.107657202282207
  1-occ =         -0.172526041483179 | -0.504381498245188 |  0.159326838159343
  Roothaan mo_energy =
[-1.10377013 -0.63552887 -0.48494647 -0.17252604  0.10490375  0.1638741
  0.37407124  0.41125153  0.47569309  0.48022009  0.50602707  0.55913874
  0.58621357  0.62779009  0.68490301  0.88164869  1.02872626  1.07024852
  1.14539233  1.18367282  1.18575303  1.19178592  1.29433193  1.43554794
  1.58556019  2.03874688  2.0558919   2.10035748  2.16145861  2.25408483
  2.30059333  2.40513189  2.41919821  2.476139    2.49251242  2.55235245
  2.55333628  2.65889112  2.6803763   2.69029064  2.69046004  2.91870566
  3.0208984   3.13637867  3.21198329  3.23248148  3.26256489  3.37973847
  3.4359357   3.72247456  3.94227672  3.98844219  4.12029217  4.26736229
  4.27609563  4.63527717  4.75201346  5.9300082   5.97466858  6.1379457
  6.33822186  6.4164862   6.46585048  6.53808777  6.58082589  6.80887776
  6.87506264  6.87574953  7.00164429  7.1402454   7.21370054  7.29734569
  7.41707222  7.42607652  7.53847833  7.5567866   7.64761219  7.81345665
  7.86864083  7.91542647  8.02314545  8.03837608  8.04529344  8.1786788
  8.30232756  8.43469846  8.51390997  8.59199664  8.62382988  8.69246405
  8.83742435  8.83978908  8.87838411  9.02456209  9.14504761  9.19983753
  9.26555948  9.29037681  9.30439532  9.86831861  9.8977041  10.09559992
 10.14251618 10.36456836 10.66792439 10.87808634 11.96523159 11.96639246
 12.08923995 12.25014524 12.53953332 12.60489487 14.75542693 19.2290455 ]
E1 = -27.686628154282012  Ecoul = 11.36687917520001
cycle= 7 E= -10.8218534520038  delta_E= -2.42e-08  |g|= 2.82e-05  |ddm|= 0.000449
    CPU time for cycle= 7     84.25 sec, wall time      0.68 sec
  HOMO = -0.172525352549213  LUMO = 0.104902947360252
                  Roothaan           | alpha              | beta
  Highest 2-occ = -0.484950573108587 | -0.505596545947593 | -0.464301396796406
  Lowest 0-occ =   0.104902947360252 |  0.102153274432049 |   0.10765299504025
  1-occ =         -0.172525352549213 | -0.504376825717465 |  0.159320218896494
  Roothaan mo_energy =
[-1.10376957 -0.63552569 -0.48495057 -0.17252535  0.10490295  0.16387424
  0.374072    0.41125121  0.4756992   0.48021723  0.50602773  0.55913981
  0.58621311  0.62778914  0.68490386  0.88164847  1.02872542  1.07024808
  1.14539265  1.18367367  1.1857539   1.1917856   1.29433312  1.43554636
  1.58556089  2.03874733  2.05589414  2.1003573   2.16145995  2.25408358
  2.30059221  2.40513055  2.41919779  2.47613814  2.49251192  2.55235088
  2.55333488  2.65889007  2.68037654  2.69029038  2.69045904  2.91870491
  3.02089895  3.13638039  3.21198436  3.23248074  3.26256685  3.37974015
  3.4359385   3.72247503  3.94227529  3.9884445   4.12029215  4.26736243
  4.27609494  4.63527703  4.75201308  5.93000764  5.9746679   6.13794449
  6.33822024  6.41648507  6.46584927  6.53808727  6.58082528  6.80887727
  6.87506312  6.87574777  7.00164366  7.14024334  7.2136992   7.29734415
  7.41707082  7.4260764   7.53847678  7.55678652  7.64761006  7.81345406
  7.86863949  7.91542564  8.02314256  8.03837327  8.04529045  8.17867645
  8.30232636  8.43469674  8.5139105   8.59199689  8.6238285   8.69246274
  8.83742276  8.83978913  8.87838222  9.02456088  9.14504827  9.19983934
  9.26555876  9.29037703  9.30439399  9.86832039  9.89770344 10.09559924
 10.14251404 10.36456803 10.66792292 10.87808604 11.96523097 11.96639125
 12.08924108 12.25014369 12.53953267 12.60489545 14.75542627 19.2290446 ]
E1 = -27.686640179020326  Ecoul = 11.366891199322033
cycle= 8 E= -10.8218534526201  delta_E= -6.16e-10  |g|= 4.25e-06  |ddm|= 8.21e-05
    CPU time for cycle= 8     93.68 sec, wall time      0.79 sec
  HOMO = -0.172524359960879  LUMO = 0.104903100799246
                  Roothaan           | alpha              | beta
  Highest 2-occ = -0.484950160043773 | -0.505597513073664 |  -0.46430280701388
  Lowest 0-occ =   0.104903100799246 |  0.102153235133745 |  0.107652966464743
  1-occ =         -0.172524359960879 | -0.504370331348804 |   0.15932108573641
  Roothaan mo_energy =
[-1.10376838 -0.63552519 -0.48495016 -0.17252436  0.1049031   0.16387429
  0.37407242  0.41125141  0.4757008   0.48021736  0.50602815  0.55914025
  0.58621335  0.62778934  0.68490407  0.88164853  1.02872565  1.07024847
  1.14539296  1.18367415  1.18575438  1.19178607  1.29433364  1.43554679
  1.58556149  2.03874777  2.05589559  2.10035774  2.16146095  2.2540839
  2.30059238  2.4051309   2.41919816  2.47613838  2.49251214  2.55235133
  2.55333513  2.65889038  2.6803773   2.69029095  2.69045941  2.91870551
  3.0208997   3.13638144  3.21198551  3.23248104  3.26256797  3.37974093
  3.43593948  3.72247576  3.94227605  3.98844524  4.12029294  4.26736318
  4.27609579  4.63527793  4.7520139   5.93000816  5.97466843  6.13794509
  6.33822053  6.41648582  6.46584977  6.53808897  6.5808262   6.80887799
  6.87506441  6.87574859  7.00164445  7.14024428  7.21369983  7.29734523
  7.41707182  7.42607734  7.53847723  7.55678783  7.64761026  7.81345451
  7.86864019  7.91542643  8.0231426   8.03837341  8.04529067  8.17867658
  8.30232706  8.43469695  8.5139114   8.59199818  8.62382947  8.69246323
  8.8374239   8.83979033  8.87838276  9.02456213  9.1450496   9.19984115
  9.26555975  9.29037796  9.30439475  9.86832205  9.89770429 10.09560111
 10.14251581 10.36456911 10.66792383 10.87808779 11.96523223 11.96639262
 12.08924262 12.25014518 12.53953438 12.60489722 14.75542769 19.22904711]
E1 = -27.686638864859326  Ecoul = 11.366889885150753
Extra cycle  E= -10.8218534526304  delta_E= -1.03e-11  |g|= 1.65e-06  |ddm|= 7.38e-06
    CPU time for scf_cycle    944.86 sec, wall time      7.86 sec
    CPU time for SCF    944.92 sec, wall time      7.86 sec
converged SCF energy = -10.8218534526304
