#INFO: **** input file is /home/nkousuke/lustre/toBeSync/turboRVB/05turbo-genius-development/turbogenius_paper/04data/sanity_checks/03pyscf_HF_turbo_VMC_via_trexio/00open_boundary/results/O/pyscf-HF-workflow/run.py ****

from pyscf_wrapper import Pyscf_wrapper

# input variables
pyscf_chkfile="pyscf.chk"
structure_file="O.xyz"

# input variables
omp_num_threads=128
charge=0
spin=2
basis="ccecp-ccpv6z"
ecp="ccecp"
scf_method="HF"
dft_xc="NA"
solver_newton=False
MP2_flag=False
CCSD_flag=False
pyscf_output="out.pyscf"
twist_average=False
exp_to_discard=0.0
kpt=[0.0, 0.0, 0.0]
kpt_grid=[1, 1, 1]
smearing_method="fermi"
smearing_sigma=0.0

pyscf_calc=Pyscf_wrapper(
                        structure_file=structure_file,
                        chkfile=pyscf_chkfile,
                        )

pyscf_calc.run_pyscf(
                  omp_num_threads=omp_num_threads,
                  charge=charge,
                  spin=spin,
                  basis=basis,
                  ecp=ecp,
                  scf_method=scf_method,
                  dft_xc=dft_xc,
                  solver_newton=solver_newton,
                  MP2_flag=MP2_flag,
                  CCSD_flag=CCSD_flag,
                  pyscf_output=pyscf_output,
                  twist_average=twist_average,
                  exp_to_discard=exp_to_discard,
                  kpt=kpt,
                  kpt_grid=kpt_grid,
                  smearing_method=smearing_method,
                  smearing_sigma=smearing_sigma
                  )
                #INFO: ******************** input file end ********************


System: uname_result(system='Linux', node='spcc-105', release='5.4.0-66-generic', version='#74-Ubuntu SMP Wed Jan 27 22:54:38 UTC 2021', machine='x86_64', processor='x86_64')  Threads 128
Python 3.7.3 (default, Mar 27 2019, 22:11:17) 
[GCC 7.3.0]
numpy 1.20.1  scipy 1.7.3
Date: Mon Dec 19 18:06:50 2022
PySCF version 2.0.1
PySCF path  /home/nkousuke/application/anaconda3/lib/python3.7/site-packages/pyscf

[CONFIG] conf_file /home/nkousuke/.pyscf_conf.py
[INPUT] verbose = 5
[INPUT] max_memory = 507596.421875 
[INPUT] num. atoms = 1
[INPUT] num. electrons = 6
[INPUT] charge = 0
[INPUT] spin (= nelec alpha-beta = 2S) = 2
[INPUT] symmetry False subgroup None
[INPUT] Mole.unit = A
[INPUT]  1 O      0.000000000000   0.000000000000   0.000000000000 AA    0.000000000000   0.000000000000   0.000000000000 Bohr
[INPUT] ---------------- BASIS SET ---------------- 
[INPUT] l, kappa, [nprim/nctr], expnt,             c_1 c_2 ...
[INPUT] O
[INPUT] 0    0    [9    /1   ]  54.775216         -0.0012444
                                25.616801         0.010733
                                11.980245         0.0018889
                                6.992317          -0.1742537
                                2.620277          0.0017622
                                1.225429          0.3161846
                                0.577797          0.4512023
                                0.268022          0.3121534
                                0.125346          0.0511167
[INPUT] 0    0    [1    /1   ]  3.469851             1
[INPUT] 0    0    [1    /1   ]  1.558348             1
[INPUT] 0    0    [1    /1   ]  0.806429             1
[INPUT] 0    0    [1    /1   ]  0.333864             1
[INPUT] 0    0    [1    /1   ]  0.145441             1
[INPUT] 1    0    [9    /1   ]  22.217266         0.0104866
                                10.74755          0.0366435
                                5.315785          0.0803674
                                2.660761          0.162701
                                1.331816          0.2377791
                                0.678626          0.2811422
                                0.333673          0.2643189
                                0.167017          0.1466014
                                0.083598          0.0458145
[INPUT] 1    0    [1    /1   ]  2.934324             1
[INPUT] 1    0    [1    /1   ]  1.898287             1
[INPUT] 1    0    [1    /1   ]  0.738398             1
[INPUT] 1    0    [1    /1   ]  0.305038             1
[INPUT] 1    0    [1    /1   ]  0.114767             1
[INPUT] 2    0    [1    /1   ]  8.82216              1
[INPUT] 2    0    [1    /1   ]  3.616739             1
[INPUT] 2    0    [1    /1   ]  1.841428             1
[INPUT] 2    0    [1    /1   ]  0.812582             1
[INPUT] 2    0    [1    /1   ]  0.310544             1
[INPUT] 3    0    [1    /1   ]  5.203369             1
[INPUT] 3    0    [1    /1   ]  2.45674              1
[INPUT] 3    0    [1    /1   ]  1.159656             1
[INPUT] 3    0    [1    /1   ]  0.460301             1
[INPUT] 4    0    [1    /1   ]  4.891044             1
[INPUT] 4    0    [1    /1   ]  2.276202             1
[INPUT] 4    0    [1    /1   ]  0.92965              1
[INPUT] 5    0    [1    /1   ]  3.72519              1
[INPUT] 5    0    [1    /1   ]  1.515261             1
[INPUT] 6    0    [1    /1   ]  2.77594              1

nuclear repulsion = 0
number of shells = 27
number of NR pGTOs = 171
number of NR cGTOs = 139
basis = ccecp-ccpv6z
ecp = ccecp
CPU time:         6.15


******** <class 'pyscf.scf.rohf.ROHF'> ********
method = ROHF-RHF
initial guess = minao
damping factor = 0
level_shift factor = 0
DIIS = <class 'pyscf.scf.diis.CDIIS'>
diis_start_cycle = 1
diis_space = 8
SCF conv_tol = 1e-09
SCF conv_tol_grad = None
SCF max_cycles = 200
direct_scf = True
direct_scf_tol = 1e-13
chkfile to save SCF result = pyscf.chk
max_memory 507596 MB (current use 106 MB)
num. doubly occ = 2  num. singly occ = 2
Set gradient conv threshold to 3.16228e-05
E1 = -26.141588852442776  Ecoul = 10.969906125809334
init E= -15.1716827266334
cond(S) = 8724.758723233796
    CPU time for initialize scf    256.52 sec, wall time      2.82 sec
  HOMO = -0.404382290011706  LUMO = 0.306447480914496
                  Roothaan           | alpha              | beta
  Highest 2-occ = -0.404382290011707 | -0.404382290011705 | -0.404382290011705
  Lowest 0-occ =   0.306447480914496 |  0.306447480914493 |  0.306447480914493
  1-occ =         -0.404382290011706 | -0.404382290011707 | -0.404382290011707
  1-occ =         -0.404382290011706 | -0.404382290011707 | -0.404382290011707
  Roothaan mo_energy =
[-1.29406554 -0.40438229 -0.40438229 -0.40438229  0.30644748  0.31210968
  0.31210968  0.31210968  0.85580903  0.85580903  0.85580903  0.85580903
  0.85580903  1.31495702  1.31495702  1.31495702  1.60067127  1.80307119
  1.80307119  1.80307119  1.80307119  1.80307119  1.80307119  1.80307119
  2.59567342  2.59567342  2.59567342  2.59567342  2.59567342  3.90057004
  3.90057004  3.90057004  4.56847367  4.56847367  4.56847367  4.56847367
  4.56847367  4.56847367  4.56847367  4.56847367  4.56847367  5.13445541
  5.13445541  5.13445541  5.13445541  5.13445541  5.13445541  5.13445541
  5.1617375   6.54956599  6.54956599  6.54956599  6.54956599  6.54956599
  9.07328078  9.07328078  9.07328078  9.07328078  9.07328078  9.07328078
  9.07328078  9.07328078  9.07328078  9.07328078  9.07328078 10.15541082
 10.15541082 10.15541082 12.17475045 12.17475045 12.17475045 12.17475045
 12.17475045 12.17475045 12.17475045 12.53314375 12.53314375 12.53314375
 12.53314375 12.53314375 12.53314375 12.53314375 12.53314375 12.53314375
 14.0348952  15.27842931 15.27842931 15.27842931 15.27842931 15.27842931
 19.89417546 19.89417546 19.89417546 19.89417546 19.89417546 19.89417546
 19.89417546 19.89417546 19.89417546 19.89417546 19.89417546 19.89417546
 19.89417546 25.0191515  25.0191515  25.0191515  25.08752721 25.08752721
 25.08752721 25.08752721 25.08752721 25.08752721 25.08752721 25.08752721
 25.08752721 25.08752721 25.08752721 27.7968924  27.7968924  27.7968924
 27.7968924  27.7968924  27.7968924  27.7968924  30.13113109 30.13113109
 30.13113109 30.13113109 30.13113109 30.13113109 30.13113109 30.13113109
 30.13113109 36.47066036 36.47066036 36.47066036 36.47066036 36.47066036
 42.16197631]
E1 = -25.930198344248012  Ecoul = 10.260256495786187
cycle= 1 E= -15.6699418484618  delta_E= -0.498  |g|= 0.218  |ddm|= 1.09
    CPU time for cycle= 1     87.58 sec, wall time      0.72 sec
  HOMO = -0.351719009206871  LUMO = 0.298437590616241
                  Roothaan           | alpha              | beta
  Highest 2-occ = -0.631636767478343 | -0.670522487413995 | -0.592751047542689
  Lowest 0-occ =   0.298437590616241 |  0.283008771235633 |  0.310356342504092
  1-occ =         -0.351719009206879 | -0.747505880179577 | 0.0882328169139156
  1-occ =         -0.351719009206871 | -0.747505880179577 | 0.0882328169139141
  Roothaan mo_energy =
[-1.33472102 -0.63163677 -0.35171901 -0.35171901  0.29843759  0.30626254
  0.31453307  0.31453307  0.83962704  0.83962704  0.8487557   0.8487557
  0.85181419  1.29869044  1.2991365   1.2991365   1.58133934  1.77872407
  1.77872407  1.79376793  1.79376793  1.80314217  1.80314217  1.80616237
  2.55954001  2.55954001  2.57689763  2.57689763  2.58258308  3.85708814
  3.85708814  3.88202312  4.52328586  4.52328586  4.54430756  4.54430756
  4.55941483  4.55941483  4.56851618  4.56851618  4.57155613  5.07991895
  5.07991895  5.1079409   5.1079409   5.12513888  5.12513888  5.12523151
  5.1307678   6.48653529  6.48653529  6.51918396  6.51918396  6.53016125
  9.00866926  9.00866926  9.03240449  9.03240449  9.05095526  9.05095526
  9.06425482  9.06425482  9.07225442  9.07225442  9.07492427 10.08473345
 10.08473345 10.13438786 12.08934163 12.08934163 12.12786066 12.12786066
 12.15130901 12.15130901 12.15913765 12.44823852 12.44823852 12.48160405
 12.48160405 12.50546137 12.50546137 12.5197866  12.5197866  12.52456357
 13.97522885 15.18911821 15.18911821 15.2334227  15.2334227  15.24880615
 19.80025413 19.80025413 19.82719744 19.82719744 19.84930407 19.84930407
 19.86653707 19.86653707 19.87886737 19.87886737 19.88627399 19.88627399
 19.88874428 24.92839887 24.92839887 24.97681644 24.97885272 24.97885272
 25.01193967 25.01193967 25.03773126 25.03773126 25.05618475 25.05618475
 25.06726927 25.06726927 25.07096619 27.68700694 27.68700694 27.7277346
 27.7277346  27.75235239 27.75235239 27.76058609 30.01607337 30.01607337
 30.0535562  30.0535562  30.08036772 30.08036772 30.09647004 30.09647004
 30.10184006 36.36288926 36.36288926 36.40519057 36.40519057 36.41924806
 42.07379621]
E1 = -26.46979500507441  Ecoul = 10.782957362633638
cycle= 2 E= -15.6868376424408  delta_E= -0.0169  |g|= 0.12  |ddm|= 0.396
    CPU time for cycle= 2     86.61 sec, wall time      0.70 sec
  HOMO = -0.269081314412661  LUMO = 0.311213499557844
                  Roothaan           | alpha              | beta
  Highest 2-occ = -0.568206659039514 | -0.582602976405887 | -0.502012337282048
  Lowest 0-occ =   0.311213499557844 |  0.295899024094223 |  0.321567962227603
  1-occ =         -0.269081314412662 | -0.677765919451953 |   0.19864594459847
  1-occ =         -0.269081314412661 | -0.677765919451952 |  0.198645944598475
  Roothaan mo_energy =
[-1.26287651 -0.56820666 -0.26908131 -0.26908131  0.3112135   0.31144884
  0.31144884  0.3144503   0.8573571   0.8573571   0.86595482  0.86595482
  0.86882147  1.32592931  1.32592931  1.33004289  1.61497497  1.79499235
  1.79499235  1.80948186  1.80948186  1.8184056   1.8184056   1.82141906
  2.60449655  2.60449655  2.62115788  2.62115788  2.62657297  3.9223876
  3.9223876   3.94581472  4.55412231  4.55412231  4.5744073   4.5744073
  4.5889944   4.5889944   4.59778675  4.59778675  4.60072433  5.12848011
  5.12848011  5.15558448  5.15558448  5.17210929  5.17210929  5.17765923
  5.19164702  6.56388682  6.56388682  6.59528561  6.59528561  6.60583546
  9.05467394  9.05467394  9.07759082  9.07759082  9.09551128  9.09551128
  9.10836404  9.10836404  9.11609693  9.11609693  9.11867812 10.18627779
 10.18627779 10.23404668 12.17779754 12.17779754 12.21524778 12.21524778
 12.23801733 12.23801733 12.24566341 12.52405666 12.52405666 12.55642191
 12.55642191 12.57958029 12.57958029 12.59349254 12.59349254 12.59813294
 14.086067   15.30262583 15.30262583 15.34571162 15.34571162 15.36067047
 19.87572864 19.87572864 19.90182846 19.90182846 19.92325383 19.92325383
 19.93996237 19.93996237 19.95192089 19.95192089 19.95910556 19.95910556
 19.96150205 25.06901616 25.06901616 25.08086434 25.08086434 25.11310369
 25.11310369 25.11631289 25.13824617 25.13824617 25.15624135 25.15624135
 25.16705302 25.16705302 25.17065934 27.81865134 27.81865134 27.85860584
 27.85860584 27.88276084 27.88276084 27.89084592 30.14024347 30.14024347
 30.1769708  30.1769708  30.20325482 30.20325482 30.21904543 30.21904543
 30.22431234 36.51378393 36.51378393 36.55541521 36.55541521 36.56926291
 42.23998882]
E1 = -26.317634459538816  Ecoul = 10.627908876364643
cycle= 3 E= -15.6897255831742  delta_E= -0.00289  |g|= 0.0116  |ddm|= 0.138
    CPU time for cycle= 3     89.50 sec, wall time      0.72 sec
  HOMO = -0.268234581558315  LUMO = 0.310475953760083
                  Roothaan           | alpha              | beta
  Highest 2-occ = -0.568105102003735 | -0.607803326682948 | -0.528166102630163
  Lowest 0-occ =   0.310475953760083 |  0.293611678724871 |  0.318723441785581
  1-occ =         -0.268234581558318 | -0.702212256583475 |  0.167730097070963
  1-occ =         -0.268234581558315 | -0.702212256583472 |  0.167730097070964
  Roothaan mo_energy =
[-1.26056756 -0.5681051  -0.26823458 -0.26823458  0.31047595  0.31047595
  0.3123033   0.31492394  0.85841478  0.85841478  0.86676636  0.86676636
  0.86959412  1.32521467  1.32521467  1.33095161  1.61663029  1.79606908
  1.79606908  1.81050094  1.81050094  1.81934651  1.81934651  1.82239665
  2.60547375  2.60547375  2.62185174  2.62185174  2.62714493  3.92255296
  3.92255296  3.94605802  4.55584452  4.55584452  4.57599325  4.57599325
  4.59048136  4.59048136  4.59921431  4.59921431  4.60213217  5.13011642
  5.13011642  5.15686942  5.15686942  5.17310804  5.17310804  5.17864856
  5.19279315  6.56451886  6.56451886  6.59549753  6.59549753  6.60586996
  9.05684095  9.05684095  9.0795075   9.0795075   9.09723325  9.09723325
  9.1099468   9.1099468   9.11759606  9.11759606  9.12014936 10.18598917
 10.18598917 10.23290419 12.17884045 12.17884045 12.21552357 12.21552357
 12.2378014  12.2378014  12.24531225 12.52584351 12.52584351 12.55759977
 12.55759977 12.58032769 12.58032769 12.59398373 12.59398373 12.59853909
 14.08547667 15.30230537 15.30230537 15.34441421 15.34441421 15.35902143
 19.87795959 19.87795959 19.90356894 19.90356894 19.92459863 19.92459863
 19.9410025  19.9410025  19.95274488 19.95274488 19.95980041 19.95980041
 19.96215394 25.06714719 25.06714719 25.08212601 25.08212601 25.11326091
 25.1135924  25.1135924  25.13814288 25.13814288 25.15571982 25.15571982
 25.16628229 25.16628229 25.16980582 27.81796261 27.81796261 27.8568397
 27.8568397  27.88034871 27.88034871 27.88822223 30.14026662 30.14026662
 30.17600893 30.17600893 30.20159989 30.20159989 30.21697859 30.21697859
 30.22210883 36.51182492 36.51182492 36.55227737 36.55227737 36.56574697
 42.23659036]
E1 = -26.32273671682308  Ecoul = 10.632956945034536
cycle= 4 E= -15.6897797717885  delta_E= -5.42e-05  |g|= 0.00316  |ddm|= 0.0212
    CPU time for cycle= 4     87.84 sec, wall time      0.69 sec
  HOMO = -0.267291299022522  LUMO = 0.310070981243212
                  Roothaan           | alpha              | beta
  Highest 2-occ = -0.567175436118052 | -0.606594423444798 | -0.526830370353816
  Lowest 0-occ =   0.310070981243212 |   0.29357188472469 |  0.319005076540084
  1-occ =         -0.267291299022525 |  -0.70256669157936 |  0.169170798957612
  1-occ =         -0.267291299022522 |  -0.70256669157936 |  0.169170798957611
  Roothaan mo_energy =
[-1.25962863 -0.56717544 -0.2672913  -0.2672913   0.31007098  0.31007098
  0.31250009  0.31512233  0.85856868  0.85856868  0.86693004  0.86693004
  0.86978846  1.32507138  1.32507138  1.33144626  1.61700666  1.79613308
  1.79613308  1.81064938  1.81064938  1.81955553  1.81955553  1.822619
  2.60572614  2.60572614  2.62221526  2.62221526  2.62754762  3.92289002
  3.92289002  3.94677422  4.5559609   4.5559609   4.57620445  4.57620445
  4.59075675  4.59075675  4.59952686  4.59952686  4.60245688  5.13038431
  5.13038431  5.15721538  5.15721538  5.17350209  5.17350209  5.17905323
  5.19340156  6.5650415   6.5650415   6.59612269  6.59612269  6.60651692
  9.0570452   9.0570452   9.07978557  9.07978557  9.09756484  9.09756484
  9.11031442  9.11031442  9.11798437  9.11798437  9.12054441 10.18683284
 10.18683284 10.23380981 12.17949641 12.17949641 12.21617102 12.21617102
 12.23844065 12.23844065 12.24594595 12.52634322 12.52634322 12.55811319
 12.55811319 12.580847   12.580847   12.59450506 12.59450506 12.59906083
 14.08646272 15.30327354 15.30327354 15.3453368  15.3453368  15.35992198
 19.87843257 19.87843257 19.90405511 19.90405511 19.92509357 19.92509357
 19.94150286 19.94150286 19.95324831 19.95324831 19.96030534 19.96030534
 19.9626593  25.06855776 25.06855776 25.08294042 25.08294042 25.11435483
 25.11435483 25.11455811 25.1388639  25.1388639  25.15641061 25.15641061
 25.16695463 25.16695463 25.17047197 27.81922245 27.81922245 27.85797036
 27.85797036 27.88140053 27.88140053 27.88924696 30.14141339 30.14141339
 30.1770441  30.1770441  30.2025547  30.2025547  30.21788482 30.21788482
 30.22299879 36.51338432 36.51338432 36.55366806 36.55366806 36.56708148
 42.23833669]
E1 = -26.318527576824188  Ecoul = 10.628744788931971
cycle= 5 E= -15.6897827878922  delta_E= -3.02e-06  |g|= 0.000354  |ddm|= 0.00566
    CPU time for cycle= 5     63.38 sec, wall time      0.50 sec
  HOMO = -0.267464438156519  LUMO = 0.31013689047532
                  Roothaan           | alpha              | beta
  Highest 2-occ = -0.567275102191701 | -0.607204333182591 |  -0.52745250355478
  Lowest 0-occ =    0.31013689047532 |  0.293473938192857 |   0.31894863546077
  1-occ =         -0.267464438156541 | -0.703357668687668 |  0.168394102023157
  1-occ =         -0.267464438156519 | -0.703357668687666 |   0.16839410202316
  Roothaan mo_energy =
[-1.25977861 -0.5672751  -0.26746444 -0.26746444  0.31013689  0.31013689
  0.31244014  0.3151046   0.858485    0.858485    0.86684847  0.86684847
  0.86970662  1.32491644  1.32491644  1.33137726  1.6169108   1.7960429
  1.7960429   1.81056448  1.81056448  1.81947328  1.81947328  1.82253825
  2.60560213  2.60560213  2.62209084  2.62209084  2.627423    3.92273454
  3.92273454  3.94664947  4.55581947  4.55581947  4.57606824  4.57606824
  4.5906243   4.5906243   4.59939664  4.59939664  4.6023274   5.13022937
  5.13022937  5.15706167  5.15706167  5.17334948  5.17334948  5.17890073
  5.19324889  6.56487311  6.56487311  6.59595646  6.59595646  6.6063511
  9.05687126  9.05687126  9.07961463  9.07961463  9.09739622  9.09739622
  9.11014746  9.11014746  9.11781843  9.11781843  9.12037881 10.18667114
 10.18667114 10.2336442  12.17932411 12.17932411 12.21599    12.21599
 12.23825422 12.23825422 12.24575776 12.52616211 12.52616211 12.55792704
 12.55792704 12.58065724 12.58065724 12.5943131  12.5943131  12.59886814
 14.08629703 15.30311256 15.30311256 15.3451621  15.3451621  15.35974217
 19.87824176 19.87824176 19.90386073 19.90386073 19.92489621 19.92489621
 19.94130317 19.94130317 19.95304696 19.95304696 19.96010301 19.96010301
 19.96245665 25.06841621 25.06841621 25.08276713 25.08276713 25.11417006
 25.11417006 25.11439563 25.13867018 25.13867018 25.15621052 25.15621052
 25.16675075 25.16675075 25.17026682 27.81907666 27.81907666 27.85780372
 27.85780372 27.88122125 27.88122125 27.88906353 30.14126133 30.14126133
 30.17687361 30.17687361 30.20237106 30.20237106 30.21769332 30.21769332
 30.22280468 36.51325091 36.51325091 36.55350967 36.55350967 36.56691493
 42.23820132]
E1 = -26.3190709635208  Ecoul = 10.629288063719267
cycle= 6 E= -15.6897828998015  delta_E= -1.12e-07  |g|= 0.000121  |ddm|= 0.00142
    CPU time for cycle= 6    109.76 sec, wall time      0.87 sec
  HOMO = -0.267432077688789  LUMO = 0.310107827335751
                  Roothaan           | alpha              | beta
  Highest 2-occ = -0.567226900738287 | -0.607083808838083 | -0.527324835263743
  Lowest 0-occ =   0.310107827335751 |  0.293479019629858 |   0.31896983466731
  1-occ =         -0.267432077688804 | -0.703315384410519 |   0.16852003880959
  1-occ =         -0.267432077688789 | -0.703315384410514 |  0.168520038809592
  Roothaan mo_energy =
[-1.25976133 -0.5672269  -0.26743208 -0.26743208  0.31010783  0.31010783
  0.31244791  0.31511662  0.85849847  0.85849847  0.86685951  0.86685951
  0.86971654  1.32493422  1.32493422  1.33140081  1.61692207  1.79605424
  1.79605424  1.81057671  1.81057671  1.81948603  1.81948603  1.82255123
  2.605621    2.605621    2.62211139  2.62211139  2.62744398  3.92275584
  3.92275584  3.94667602  4.55583948  4.55583948  4.57608775  4.57608775
  4.59064347  4.59064347  4.59941562  4.59941562  4.60234632  5.13025552
  5.13025552  5.15708522  5.15708522  5.17337147  5.17337147  5.17892221
  5.19327151  6.56490306  6.56490306  6.59598257  6.59598257  6.60637593
  9.05689977  9.05689977  9.07964082  9.07964082  9.09742064  9.09742064
  9.11017063  9.11017063  9.11784087  9.11784087  9.120401   10.1867014
 10.1867014  10.23366634 12.17936268 12.17936268 12.21602029 12.21602029
 12.23827948 12.23827948 12.24578137 12.52620091 12.52620091 12.55795935
 12.55795935 12.58068497 12.58068497 12.5943381  12.5943381  12.59889224
 14.0863251  15.30314959 15.30314959 15.34518844 15.34518844 15.35976469
 19.87828339 19.87828339 19.90389709 19.90389709 19.92492826 19.92492826
 19.9413319  19.9413319  19.95307332 19.95307332 19.96012795 19.96012795
 19.96248112 25.0684464  25.0684464  25.08281454 25.08281454 25.11420887
 25.11420887 25.11441268 25.13870233 25.13870233 25.15623793 25.15623793
 25.16677532 25.16677532 25.17029045 27.81911941 27.81911941 27.85783404
 27.85783404 27.88124408 27.88124408 27.88908386 30.14130839 30.14130839
 30.17690941 30.17690941 30.20239883 30.20239883 30.2177163  30.2177163
 30.22282606 36.51328724 36.51328724 36.5535322  36.5535322  36.56693294
 42.23822468]
E1 = -26.318889402317602  Ecoul = 10.629106494091198
cycle= 7 E= -15.6897829082264  delta_E= -8.42e-09  |g|= 6.12e-06  |ddm|= 0.000316
    CPU time for cycle= 7     75.98 sec, wall time      0.63 sec
  HOMO = -0.267432543751354  LUMO = 0.310108554967837
                  Roothaan           | alpha              | beta
  Highest 2-occ = -0.567226449576915 | -0.607106248539641 | -0.527348091266482
  Lowest 0-occ =   0.310108554967837 |   0.29347409086284 |  0.318967614143326
  1-occ =         -0.267432543751365 | -0.703347894487987 |  0.168482805194503
  1-occ =         -0.267432543751354 | -0.703347894487988 |  0.168482805194504
  Roothaan mo_energy =
[-1.25976318 -0.56722645 -0.26743254 -0.26743254  0.31010855  0.31010855
  0.31244667  0.3151164   0.85849754  0.85849754  0.8668584   0.8668584
  0.86971547  1.32493035  1.32493035  1.33140023  1.61692101  1.7960529
  1.7960529   1.81057545  1.81057545  1.81948484  1.81948484  1.82255007
  2.60561947  2.60561947  2.62211014  2.62211014  2.62744272  3.92275473
  3.92275473  3.94667481  4.55583784  4.55583784  4.57608614  4.57608614
  4.59064189  4.59064189  4.59941406  4.59941406  4.60234477  5.13025404
  5.13025404  5.15708372  5.15708372  5.1733699   5.1733699   5.17892069
  5.19327003  6.56490171  6.56490171  6.59598121  6.59598121  6.60637455
  9.0568983   9.0568983   9.07963925  9.07963925  9.09741901  9.09741901
  9.11016898  9.11016898  9.1178392   9.1178392   9.12039934 10.18670027
 10.18670027 10.23366488 12.17936167 12.17936167 12.21601899 12.21601899
 12.23827802 12.23827802 12.24577987 12.52619987 12.52619987 12.55795804
 12.55795804 12.5806835  12.5806835  12.59433655 12.59433655 12.59889066
 14.08632386 15.30314864 15.30314864 15.34518713 15.34518713 15.35976328
 19.8782825  19.8782825  19.90389592 19.90389592 19.92492691 19.92492691
 19.94133042 19.94133042 19.95307176 19.95307176 19.96012634 19.96012634
 19.9624795  25.06844546 25.06844546 25.08281386 25.08281386 25.11420783
 25.11420783 25.1144113  25.13870104 25.13870104 25.15623649 25.15623649
 25.16677379 25.16677379 25.17028889 27.81911868 27.81911868 27.8578329
 27.8578329  27.88124273 27.88124273 27.88908245 30.14130774 30.14130774
 30.17690836 30.17690836 30.20239754 30.20239754 30.21771487 30.21771487
 30.22282459 36.51328647 36.51328647 36.553531   36.553531   36.56693164
 42.23822365]
E1 = -26.318889566563115  Ecoul = 10.629106658312162
cycle= 8 E= -15.689782908251  delta_E= -2.45e-11  |g|= 4.51e-07  |ddm|= 1.85e-05
    CPU time for cycle= 8    124.58 sec, wall time      0.99 sec
  HOMO = -0.267432679319558  LUMO = 0.31010845686943
                  Roothaan           | alpha              | beta
  Highest 2-occ = -0.567226475605769 | -0.607105591775584 | -0.527347359435962
  Lowest 0-occ =    0.31010845686943 |  0.293474029396188 |  0.318967780777943
  1-occ =         -0.267432679319568 | -0.703348371157917 |  0.168483009583892
  1-occ =         -0.267432679319558 | -0.703348371157918 |  0.168483009583891
  Roothaan mo_energy =
[-1.25976328 -0.56722648 -0.26743268 -0.26743268  0.31010846  0.31010846
  0.31244669  0.31511644  0.85849756  0.85849756  0.86685843  0.86685843
  0.8697155   1.32493063  1.32493063  1.33140025  1.616921    1.79605294
  1.79605294  1.8105755   1.8105755   1.81948489  1.81948489  1.82255012
  2.60561948  2.60561948  2.62211015  2.62211015  2.62744274  3.92275466
  3.92275466  3.94667479  4.55583787  4.55583787  4.57608617  4.57608617
  4.59064193  4.59064193  4.5994141   4.5994141   4.60234481  5.13025404
  5.13025404  5.15708373  5.15708373  5.17336991  5.17336991  5.1789207
  5.19327001  6.56490166  6.56490166  6.59598118  6.59598118  6.60637451
  9.05689829  9.05689829  9.07963925  9.07963925  9.09741902  9.09741902
  9.11016899  9.11016899  9.11783922  9.11783922  9.12039935 10.18670018
 10.18670018 10.23366481 12.17936158 12.17936158 12.21601892 12.21601892
 12.23827796 12.23827796 12.24577981 12.52619979 12.52619979 12.55795799
 12.55795799 12.58068345 12.58068345 12.59433651 12.59433651 12.59889062
 14.08632377 15.30314853 15.30314853 15.34518704 15.34518704 15.3597632
 19.87828241 19.87828241 19.90389585 19.90389585 19.92492685 19.92492685
 19.94133037 19.94133037 19.95307171 19.95307171 19.9601263  19.9601263
 19.96247946 25.06844534 25.06844534 25.08281374 25.08281374 25.11420772
 25.11420772 25.11441119 25.13870095 25.13870095 25.1562364  25.1562364
 25.16677371 25.16677371 25.17028881 27.81911854 27.81911854 27.85783278
 27.85783278 27.88124262 27.88124262 27.88908234 30.1413076  30.1413076
 30.17690824 30.17690824 30.20239743 30.20239743 30.21771476 30.21771476
 30.22282448 36.51328632 36.51328632 36.55353088 36.55353088 36.56693151
 42.23822352]
E1 = -26.31888968288562  Ecoul = 10.629106774634588
Extra cycle  E= -15.689782908251  delta_E= -7.82e-14  |g|= 8.84e-08  |ddm|= 1.34e-06
    CPU time for scf_cycle   1073.64 sec, wall time      9.37 sec
    CPU time for SCF   1073.79 sec, wall time      9.37 sec
converged SCF energy = -15.689782908251
