#INFO: **** input file is /home/nkousuke/lustre/toBeSync/turboRVB/05turbo-genius-development/turbogenius_paper/04data/sanity_checks/02pyscf_prep_LDA_via_trexio/00open_boundary/results/H2CO/pyscf-LDA-workflow/run.py ****

from pyscf_wrapper import Pyscf_wrapper

# input variables
pyscf_chkfile="pyscf.chk"
structure_file="H2CO.xyz"

# input variables
omp_num_threads=128
charge=0
spin=0
basis="ccecp-ccpvqz"
ecp="ccecp"
scf_method="DFT"
dft_xc="LDA_X,LDA_C_PZ"
solver_newton=False
MP2_flag=False
CCSD_flag=False
pyscf_output="out.pyscf"
twist_average=False
exp_to_discard=0.1
kpt=[0.0, 0.0, 0.0]
kpt_grid=[1, 1, 1]
smearing_method="fermi"
smearing_sigma=0.0

pyscf_calc=Pyscf_wrapper(
                        structure_file=structure_file,
                        chkfile=pyscf_chkfile,
                        )

pyscf_calc.run_pyscf(
                  omp_num_threads=omp_num_threads,
                  charge=charge,
                  spin=spin,
                  basis=basis,
                  ecp=ecp,
                  scf_method=scf_method,
                  dft_xc=dft_xc,
                  solver_newton=solver_newton,
                  MP2_flag=MP2_flag,
                  CCSD_flag=CCSD_flag,
                  pyscf_output=pyscf_output,
                  twist_average=twist_average,
                  exp_to_discard=exp_to_discard,
                  kpt=kpt,
                  kpt_grid=kpt_grid,
                  smearing_method=smearing_method,
                  smearing_sigma=smearing_sigma
                  )
                #INFO: ******************** input file end ********************


System: uname_result(system='Linux', node='spcc-205', release='5.4.0-66-generic', version='#74-Ubuntu SMP Wed Jan 27 22:54:38 UTC 2021', machine='x86_64', processor='x86_64')  Threads 128
Python 3.7.3 (default, Mar 27 2019, 22:11:17) 
[GCC 7.3.0]
numpy 1.20.1  scipy 1.7.3
Date: Thu Dec 22 06:16:05 2022
PySCF version 2.0.1
PySCF path  /home/nkousuke/application/anaconda3/lib/python3.7/site-packages/pyscf

[CONFIG] conf_file /home/nkousuke/.pyscf_conf.py
[INPUT] verbose = 5
[INPUT] max_memory = 507403.3203125 
[INPUT] num. atoms = 4
[INPUT] num. electrons = 12
[INPUT] charge = 0
[INPUT] spin (= nelec alpha-beta = 2S) = 0
[INPUT] symmetry False subgroup None
[INPUT] Mole.unit = A
[INPUT]  1 O      0.000000000000   0.000000000000   0.674170000000 AA    0.000000000000   0.000000000000   1.273996661398 Bohr
[INPUT]  2 C      0.000000000000   0.000000000000  -0.529630000000 AA    0.000000000000   0.000000000000  -1.000855647353 Bohr
[INPUT]  3 H      0.000000000000   0.936150000000  -1.107800000000 AA    0.000000000000   1.769067111512  -2.093438600793 Bohr
[INPUT]  4 H      0.000000000000  -0.936150000000  -1.107800000000 AA    0.000000000000  -1.769067111512  -2.093438600793 Bohr
[INPUT] ---------------- BASIS SET ---------------- 
[INPUT] l, kappa, [nprim/nctr], expnt,             c_1 c_2 ...
[INPUT] H
[INPUT] 0    0    [8    /1   ]  23.843185         0.0041149
                                10.212443         0.0104644
                                4.374164          0.0280111
                                1.873529          0.0758862
                                0.802465          0.1821062
                                0.343709          0.3485214
                                0.147217          0.3782313
                                0.063055          0.1164241
[INPUT] 0    0    [1    /1   ]  0.081856             1
[INPUT] 0    0    [1    /1   ]  0.233254             1
[INPUT] 0    0    [1    /1   ]  0.664673             1
[INPUT] 1    0    [1    /1   ]  0.284469             1
[INPUT] 1    0    [1    /1   ]  0.847159             1
[INPUT] 1    0    [1    /1   ]  2.522868             1
[INPUT] 2    0    [1    /1   ]  0.665279             1
[INPUT] 2    0    [1    /1   ]  2.048739             1
[INPUT] 3    0    [1    /1   ]  1.42146              1
[INPUT] O
[INPUT] 0    0    [9    /1   ]  54.775216         -0.0012444
                                25.616801         0.010733
                                11.980245         0.0018889
                                6.992317          -0.1742537
                                2.620277          0.0017622
                                1.225429          0.3161846
                                0.577797          0.4512023
                                0.268022          0.3121534
                                0.125346          0.0511167
[INPUT] 0    0    [1    /1   ]  1.351771             1
[INPUT] 0    0    [1    /1   ]  0.843157             1
[INPUT] 0    0    [1    /1   ]  0.22438              1
[INPUT] 1    0    [9    /1   ]  22.217266         0.0104866
                                10.74755          0.0366435
                                5.315785          0.0803674
                                2.660761          0.162701
                                1.331816          0.2377791
                                0.678626          0.2811422
                                0.333673          0.2643189
                                0.167017          0.1466014
                                0.083598          0.0458145
[INPUT] 1    0    [1    /1   ]  1.106737             1
[INPUT] 1    0    [1    /1   ]  0.452364             1
[INPUT] 1    0    [1    /1   ]  0.148562             1
[INPUT] 2    0    [1    /1   ]  4.008867             1
[INPUT] 2    0    [1    /1   ]  1.344331             1
[INPUT] 2    0    [1    /1   ]  0.455711             1
[INPUT] 3    0    [1    /1   ]  2.763115             1
[INPUT] 3    0    [1    /1   ]  0.876289             1
[INPUT] 4    0    [1    /1   ]  1.759081             1
[INPUT] C
[INPUT] 0    0    [9    /1   ]  13.073594         0.0051583
                                6.541187          0.0603424
                                4.573411          -0.1978471
                                1.637494          -0.081034
                                0.819297          0.2321726
                                0.409924          0.2914643
                                0.2313            0.4336405
                                0.102619          0.213194
                                0.051344          0.0049848
[INPUT] 0    0    [1    /1   ]  0.846879             1
[INPUT] 0    0    [1    /1   ]  0.269659             1
[INPUT] 0    0    [1    /1   ]  0.109576             1
[INPUT] 1    0    [9    /1   ]  9.934169          0.0209076
                                3.886955          0.0572698
                                1.871016          0.1122682
                                0.935757          0.2130082
                                0.468003          0.2835815
                                0.239473          0.3011207
                                0.117063          0.2016934
                                0.058547          0.0453575
                                0.029281          0.0029775
[INPUT] 1    0    [1    /1   ]  0.804681             1
[INPUT] 1    0    [1    /1   ]  0.313254             1
[INPUT] 1    0    [1    /1   ]  0.105389             1
[INPUT] 2    0    [1    /1   ]  2.01376              1
[INPUT] 2    0    [1    /1   ]  0.684884             1
[INPUT] 2    0    [1    /1   ]  0.240171             1
[INPUT] 3    0    [1    /1   ]  0.457302             1
[INPUT] 3    0    [1    /1   ]  1.32493              1
[INPUT] 4    0    [1    /1   ]  1.03418              1

nuclear repulsion = 17.834991476811
number of shells = 48
number of NR pGTOs = 246
number of NR cGTOs = 168
basis = ccecp-ccpvqz
ecp = ccecp
CPU time:         5.71


******** <class 'pyscf.df.df_jk.density_fit.<locals>.DFHF'> ********
method = DFHF-RKS-RHF
initial guess = minao
damping factor = 0
level_shift factor = 0
DIIS = <class 'pyscf.scf.diis.CDIIS'>
diis_start_cycle = 1
diis_space = 8
SCF conv_tol = 1e-09
SCF conv_tol_grad = None
SCF max_cycles = 200
direct_scf = True
direct_scf_tol = 1e-13
chkfile to save SCF result = pyscf.chk
max_memory 507403 MB (current use 106 MB)
XC library pyscf.dft.libxc version 5.1.7
    S. Lehtola, C. Steigemann, M. J. Oliveira, and M. A. Marques, SoftwareX 7, 1 (2018)
XC functionals = LDA_X,LDA_C_PZ
    P. A. M. Dirac, Math. Proc. Cambridge Philos. Soc. 26, 376 (1930)
    F. Bloch, Z. Phys. 57, 545 (1929)
    J. P. Perdew and A. Zunger, Phys. Rev. B 23, 5048 (1981)
radial grids: 
    Treutler-Ahlrichs [JCP 102, 346 (1995); DOI:10.1063/1.469408] (M4) radial grids
    
becke partition: Becke, JCP 88, 2547 (1988); DOI:10.1063/1.454033
pruning grids: <function nwchem_prune at 0x14e2ff7f17b8>
grids dens level: 3
symmetrized grids: False
atomic radii adjust function: <function treutler_atomic_radii_adjust at 0x14e2ff7f16a8>
small_rho_cutoff = 1e-07
Set gradient conv threshold to 3.16228e-05
atom O rad-grids = 75, ang-grids = [ 50  50  50  50  50  50  50  50  50  50  50  50  50  50  50  50  50  50
  50  50  50  50  86  86  86  86  86  86  86  86  86 266 266 266 266 266
 266 266 302 302 302 302 302 302 302 302 302 302 302 302 302 302 302 302
 302 302 302 266 266 266 266 266 266 266 266 266 266 266 266 266 266 266
 266 266 266]
atom C rad-grids = 75, ang-grids = [ 50  50  50  50  50  50  50  50  50  50  50  50  50  50  50  50  50  50
  50  50  50  50  50  86  86  86  86  86  86  86  86  86  86 266 266 266
 266 266 266 266 302 302 302 302 302 302 302 302 302 302 302 302 302 302
 302 302 302 302 302 302 266 266 266 266 266 266 266 266 266 266 266 266
 266 266 266]
atom H rad-grids = 50, ang-grids = [ 50  50  50  50  50  50  50  50  50  50  50  50  50  50  86  86  86  86
 266 266 266 266 302 302 302 302 302 302 302 302 302 302 302 302 302 266
 266 266 266 266 266 266 266 266 266 266 266 266 266 266]
tot grids = 48212
Drop grids 3944
    CPU time for setting up grids     43.50 sec, wall time      0.37 sec
nelec by numeric integration = 11.999899843529136
    CPU time for vxc     37.84 sec, wall time      0.29 sec
Even tempered Gaussians are generated as DF auxbasis for  H O C
  ETB auxbasis for H  [[0, [32.28416, 1]], [0, [16.14208, 1]], [0, [8.07104, 1]], [0, [4.03552, 1]], [0, [2.01776, 1]], [0, [1.00888, 1]], [0, [0.50444, 1]], [0, [0.25222, 1]], [0, [0.12611, 1]], [1, [8.571507550502421, 1]], [1, [4.2857537752512105, 1]], [1, [2.1428768876256052, 1]], [1, [1.0714384438128026, 1]], [1, [0.5357192219064013, 1]], [1, [0.26785961095320066, 1]], [2, [4.551504, 1]], [2, [2.275752, 1]], [2, [1.137876, 1]], [2, [0.568938, 1]]]
  ETB auxbasis for O  [[0, [64.177152, 1]], [0, [32.088576, 1]], [0, [16.044288, 1]], [0, [8.022144, 1]], [0, [4.011072, 1]], [0, [2.005536, 1]], [0, [1.002768, 1]], [0, [0.501384, 1]], [0, [0.250692, 1]], [1, [52.41108427692326, 1]], [1, [26.20554213846163, 1]], [1, [13.102771069230815, 1]], [1, [6.551385534615408, 1]], [1, [3.275692767307704, 1]], [1, [1.637846383653852, 1]], [1, [0.818923191826926, 1]], [1, [0.409461595913463, 1]], [1, [0.2047307979567315, 1]], [2, [42.802176, 1]], [2, [21.401088, 1]], [2, [10.700544, 1]], [2, [5.350272, 1]], [2, [2.675136, 1]], [2, [1.337568, 1]], [2, [0.668784, 1]], [2, [0.334392, 1]], [2, [0.167196, 1]], [3, [12.491732442583295, 1]], [3, [6.245866221291648, 1]], [3, [3.122933110645824, 1]], [3, [1.561466555322912, 1]], [3, [0.780733277661456, 1]], [3, [0.390366638830728, 1]], [4, [7.291376, 1]], [4, [3.645688, 1]], [4, [1.822844, 1]], [4, [0.911422, 1]]]
  ETB auxbasis for C  [[0, [13.144064, 1]], [0, [6.572032, 1]], [0, [3.286016, 1]], [0, [1.643008, 1]], [0, [0.821504, 1]], [0, [0.410752, 1]], [0, [0.205376, 1]], [0, [0.102688, 1]], [1, [19.852159834527225, 1]], [1, [9.926079917263612, 1]], [1, [4.963039958631806, 1]], [1, [2.481519979315903, 1]], [1, [1.2407599896579515, 1]], [1, [0.6203799948289758, 1]], [1, [0.3101899974144879, 1]], [1, [0.15509499870724394, 1]], [1, [0.07754749935362197, 1]], [2, [14.991872, 1]], [2, [7.495936, 1]], [2, [3.747968, 1]], [2, [1.873984, 1]], [2, [0.936992, 1]], [2, [0.468496, 1]], [2, [0.234248, 1]], [2, [0.117124, 1]], [2, [0.058562, 1]], [3, [5.36701994787573, 1]], [3, [2.683509973937865, 1]], [3, [1.3417549869689325, 1]], [3, [0.6708774934844662, 1]], [3, [0.3354387467422331, 1]], [3, [0.16771937337111656, 1]], [4, [3.842736, 1]], [4, [1.921368, 1]], [4, [0.960684, 1]], [4, [0.480342, 1]]]
num shells = 111, num cGTOs = 411
    CPU time for df-vj     19.01 sec, wall time      0.15 sec
E1 = -69.8282340513481  Ecoul = 35.05937593974218  Exc = -5.54353134508994
init E= -22.4773979798848
cond(S) = 40120.663685784384
    CPU time for initialize scf    248.43 sec, wall time      2.14 sec
  HOMO = -0.337257569852192  LUMO = -0.16579060323249
  mo_energy =
[-1.12918772e+00 -6.50690488e-01 -5.34498676e-01 -5.32707726e-01
 -4.78416183e-01 -3.37257570e-01 -1.65790603e-01  5.20640075e-03
  5.16178660e-02  5.91809612e-02  1.69076073e-01  1.74584933e-01
  2.04836863e-01  2.35407074e-01  2.87760837e-01  2.91041361e-01
  3.21042880e-01  3.27866834e-01  3.35927429e-01  3.90244572e-01
  5.30479068e-01  5.50424799e-01  6.08293839e-01  6.53878912e-01
  6.85196072e-01  6.98282620e-01  7.32955426e-01  7.42611673e-01
  8.71534875e-01  8.90960640e-01  9.50423955e-01  1.01557203e+00
  1.10281845e+00  1.16809294e+00  1.18846403e+00  1.23155034e+00
  1.28241121e+00  1.32685457e+00  1.33251692e+00  1.55625859e+00
  1.59039029e+00  1.59432562e+00  1.59894665e+00  1.65556491e+00
  1.67206292e+00  1.68907636e+00  1.73615501e+00  1.74144382e+00
  1.82106878e+00  1.86507756e+00  2.00264243e+00  2.02191412e+00
  2.07076331e+00  2.19894532e+00  2.20438119e+00  2.27189992e+00
  2.33495816e+00  2.34999011e+00  2.40376521e+00  2.42305420e+00
  2.45628622e+00  2.55314874e+00  2.57510922e+00  2.82623752e+00
  2.85011322e+00  2.87367028e+00  2.90465243e+00  3.13170804e+00
  3.20642955e+00  3.21646175e+00  3.21995325e+00  3.26697060e+00
  3.31361398e+00  3.49056593e+00  3.56501029e+00  3.66705799e+00
  3.72804969e+00  3.81673057e+00  3.87416398e+00  3.89250855e+00
  4.09360711e+00  4.11523184e+00  4.20535935e+00  4.24059972e+00
  4.41425937e+00  4.94195822e+00  4.99850334e+00  5.02554952e+00
  5.07041024e+00  5.07944894e+00  5.20117022e+00  5.23301408e+00
  5.30269380e+00  5.31200166e+00  5.31601289e+00  5.39221672e+00
  5.42801857e+00  5.57689321e+00  5.58815794e+00  5.64025097e+00
  5.81216545e+00  5.93197104e+00  5.95754832e+00  6.01061323e+00
  6.13679670e+00  6.20145881e+00  6.20722529e+00  6.29832453e+00
  6.46981161e+00  6.63943594e+00  6.68388596e+00  6.73172600e+00
  6.76934264e+00  6.77727653e+00  6.98194205e+00  7.07578591e+00
  7.36447360e+00  7.43669428e+00  7.44102480e+00  7.46308698e+00
  7.48351688e+00  7.50413802e+00  7.53493139e+00  7.61524349e+00
  7.73052595e+00  7.83247128e+00  7.89758528e+00  8.00151638e+00
  8.04096253e+00  8.07173001e+00  8.10499129e+00  8.20161629e+00
  8.21311417e+00  8.24866061e+00  8.30771523e+00  8.43547279e+00
  8.48430109e+00  8.81843469e+00  8.89117953e+00  8.96185179e+00
  9.28050281e+00  9.39532389e+00  9.40836260e+00  9.59641820e+00
  9.65532042e+00  9.76408987e+00  9.91203700e+00  9.92138215e+00
  9.94367531e+00  1.01744931e+01  1.04251276e+01  1.05846364e+01
  1.10339892e+01  1.10400880e+01  1.10621781e+01  1.13971075e+01
  1.15867595e+01  1.17742519e+01  1.20281042e+01  1.22547430e+01
  1.22589701e+01  1.23539669e+01  1.25114758e+01  1.32403522e+01
  1.36793644e+01  1.38473762e+01  1.95062181e+01  3.19277683e+01]
nelec by numeric integration = 11.999999850361231
    CPU time for vxc     33.35 sec, wall time      0.27 sec
    CPU time for df-vj      3.45 sec, wall time      0.03 sec
E1 = -72.59791460980232  Ecoul = 38.14775963482727  Exc = -6.041669713350654
cycle= 1 E= -22.6568332115147  delta_E= -0.179  |g|= 0.743  |ddm|= 4.23
    CPU time for cycle= 1     49.63 sec, wall time      0.42 sec
  HOMO = -0.0608647889070651  LUMO = 0.007839997102798
  mo_energy =
[-8.00207166e-01 -5.58730672e-01 -4.26453560e-01 -2.64726817e-01
 -1.98676185e-01 -6.08647889e-02  7.83999710e-03  2.22490179e-02
  6.95527156e-02  1.17502293e-01  1.79989695e-01  2.07519123e-01
  2.78640194e-01  2.95814388e-01  3.33225848e-01  3.44696532e-01
  3.45489560e-01  4.56030039e-01  4.58489767e-01  4.86091866e-01
  5.61484424e-01  5.97664856e-01  6.11783328e-01  6.99851165e-01
  7.11648341e-01  7.75680608e-01  8.28974528e-01  8.37038119e-01
  9.07584453e-01  9.49581008e-01  9.63857984e-01  1.12812186e+00
  1.21439757e+00  1.25027648e+00  1.28733882e+00  1.32222578e+00
  1.45241394e+00  1.46564167e+00  1.50476931e+00  1.59378469e+00
  1.62350244e+00  1.65405695e+00  1.67102760e+00  1.71591632e+00
  1.72237398e+00  1.72572074e+00  1.79075714e+00  1.92985416e+00
  1.94523758e+00  2.01674669e+00  2.05301283e+00  2.07960125e+00
  2.10562684e+00  2.25794281e+00  2.27149526e+00  2.27418364e+00
  2.36302047e+00  2.43129132e+00  2.46709104e+00  2.47296986e+00
  2.48254842e+00  2.60960827e+00  2.75621608e+00  2.91131514e+00
  2.92865637e+00  2.94753735e+00  2.98907581e+00  3.24488982e+00
  3.24936016e+00  3.27704702e+00  3.28131861e+00  3.45139318e+00
  3.51073287e+00  3.54723483e+00  3.77019724e+00  3.81929446e+00
  4.01452658e+00  4.09670168e+00  4.20177711e+00  4.21279921e+00
  4.29067218e+00  4.34948944e+00  4.43535354e+00  4.46872457e+00
  4.60729062e+00  5.04825011e+00  5.06632103e+00  5.09081078e+00
  5.12286209e+00  5.28303973e+00  5.28773812e+00  5.29052986e+00
  5.35950781e+00  5.37954526e+00  5.41938313e+00  5.51255700e+00
  5.54823270e+00  5.64890589e+00  5.71213265e+00  5.73406938e+00
  5.95031685e+00  5.97801406e+00  6.00104126e+00  6.02398198e+00
  6.19049658e+00  6.27891651e+00  6.35512771e+00  6.37544837e+00
  6.59035459e+00  6.77097430e+00  6.85852764e+00  6.91869502e+00
  6.99885587e+00  7.05935800e+00  7.07903991e+00  7.26612698e+00
  7.39473626e+00  7.48961663e+00  7.49231801e+00  7.49598415e+00
  7.49752900e+00  7.50642824e+00  7.70307277e+00  7.73908907e+00
  7.74651148e+00  7.85256979e+00  7.93325223e+00  8.05536447e+00
  8.05831974e+00  8.10968107e+00  8.11292098e+00  8.36510929e+00
  8.42410387e+00  8.46472454e+00  8.54579872e+00  8.56492091e+00
  8.77104636e+00  8.96963724e+00  9.02421615e+00  9.21639330e+00
  9.34464691e+00  9.55149565e+00  9.69383569e+00  9.73118118e+00
  9.78162926e+00  9.95493429e+00  9.97728740e+00  1.00459629e+01
  1.02370519e+01  1.03495690e+01  1.06186448e+01  1.07469717e+01
  1.12640801e+01  1.15028172e+01  1.15226528e+01  1.18626604e+01
  1.20373767e+01  1.21546247e+01  1.22319093e+01  1.26369046e+01
  1.27904026e+01  1.28675908e+01  1.29587385e+01  1.37314362e+01
  1.41616976e+01  1.43106800e+01  1.96550008e+01  3.25883291e+01]
nelec by numeric integration = 11.9999981039906
    CPU time for vxc     45.13 sec, wall time      0.35 sec
    CPU time for df-vj     11.17 sec, wall time      0.09 sec
E1 = -67.23407098732494  Ecoul = 32.7000072228496  Exc = -5.170293672447701
cycle= 2 E= -21.869365960112  delta_E= 0.787  |g|= 1.99  |ddm|= 4.27
    CPU time for cycle= 2    130.87 sec, wall time      1.03 sec
  HOMO = -0.2071292001222  LUMO = -0.0742759487808221
  mo_energy =
[-9.58461184e-01 -5.53114597e-01 -4.25792311e-01 -3.77113448e-01
 -3.50111526e-01 -2.07129200e-01 -7.42759488e-02  2.24187937e-02
  7.19384567e-02  9.73890503e-02  1.90311215e-01  2.08178454e-01
  2.43845482e-01  2.86391814e-01  3.14998309e-01  3.32497094e-01
  3.60524338e-01  3.73951834e-01  4.13741033e-01  4.33446824e-01
  5.60046585e-01  5.86744987e-01  6.25837121e-01  6.83471560e-01
  7.17295688e-01  7.43419690e-01  7.92175721e-01  8.00248275e-01
  9.07586397e-01  9.19415934e-01  9.81838527e-01  1.07188693e+00
  1.17813774e+00  1.22378783e+00  1.23667130e+00  1.29627533e+00
  1.36289320e+00  1.40041666e+00  1.41739886e+00  1.60018846e+00
  1.64474967e+00  1.64713987e+00  1.65618880e+00  1.71415120e+00
  1.71776065e+00  1.73478964e+00  1.78609466e+00  1.82914483e+00
  1.90026371e+00  1.95895014e+00  2.05687209e+00  2.08068930e+00
  2.09458886e+00  2.25283269e+00  2.26090382e+00  2.28974136e+00
  2.37190196e+00  2.42015904e+00  2.43831152e+00  2.45596606e+00
  2.48211282e+00  2.61131624e+00  2.65381020e+00  2.88774932e+00
  2.90630546e+00  2.92768326e+00  2.95800914e+00  3.21504260e+00
  3.26541898e+00  3.27451043e+00  3.27475839e+00  3.35418014e+00
  3.40325645e+00  3.55284227e+00  3.68331287e+00  3.74404385e+00
  3.85868281e+00  3.94552806e+00  4.01762486e+00  4.02682990e+00
  4.20013124e+00  4.22868727e+00  4.31510585e+00  4.36115216e+00
  4.52818969e+00  5.04540868e+00  5.07604549e+00  5.10899664e+00
  5.15188565e+00  5.20892446e+00  5.29584334e+00  5.30917250e+00
  5.38315748e+00  5.39150400e+00  5.41104896e+00  5.48672217e+00
  5.52174248e+00  5.66468372e+00  5.69169104e+00  5.73520925e+00
  5.92156812e+00  5.99207459e+00  6.01489904e+00  6.04891735e+00
  6.20663318e+00  6.28889945e+00  6.31565857e+00  6.36585525e+00
  6.55634627e+00  6.74666224e+00  6.82072003e+00  6.87460435e+00
  6.88673724e+00  6.91409996e+00  7.04121078e+00  7.20186837e+00
  7.41867660e+00  7.49157776e+00  7.50702632e+00  7.51141200e+00
  7.53404431e+00  7.53824471e+00  7.62164376e+00  7.69821046e+00
  7.77106720e+00  7.87311302e+00  7.96106318e+00  8.06601397e+00
  8.08304782e+00  8.13778154e+00  8.14419635e+00  8.34388589e+00
  8.34726712e+00  8.35783612e+00  8.40611359e+00  8.48495929e+00
  8.61497910e+00  8.89904492e+00  8.99252013e+00  9.10134843e+00
  9.35251016e+00  9.49405466e+00  9.54594151e+00  9.71254192e+00
  9.75722753e+00  9.84988304e+00  9.99389611e+00  1.00280079e+01
  1.00806058e+01  1.02996187e+01  1.05317399e+01  1.06989289e+01
  1.11723146e+01  1.12255938e+01  1.12501886e+01  1.15927120e+01
  1.17793973e+01  1.19652709e+01  1.21527081e+01  1.24224545e+01
  1.24773166e+01  1.25672072e+01  1.27142119e+01  1.34512031e+01
  1.38946342e+01  1.40634013e+01  1.96709676e+01  3.22011077e+01]
nelec by numeric integration = 11.999999335823425
    CPU time for vxc     37.17 sec, wall time      0.30 sec
    CPU time for df-vj      8.49 sec, wall time      0.07 sec
E1 = -70.7094681253288  Ecoul = 35.78459976763229  Exc = -5.6703959650343725
cycle= 3 E= -22.7602728459199  delta_E= -0.891  |g|= 0.187  |ddm|= 3.38
    CPU time for cycle= 3    103.28 sec, wall time      0.82 sec
  HOMO = -0.235370481989113  LUMO = -0.108397138988043
  mo_energy =
[-1.00043051e+00 -5.89710077e-01 -4.59660661e-01 -4.10815973e-01
 -3.84203595e-01 -2.35370482e-01 -1.08397139e-01  1.12521734e-02
  6.08704874e-02  8.64751834e-02  1.78357887e-01  1.90427037e-01
  2.34566162e-01  2.76165894e-01  3.00756785e-01  3.12301727e-01
  3.45487735e-01  3.62701216e-01  3.88117979e-01  4.24971153e-01
  5.45527645e-01  5.73435769e-01  6.16103762e-01  6.72485576e-01
  7.04856360e-01  7.22652693e-01  7.76995417e-01  7.81302020e-01
  8.93840323e-01  9.03884264e-01  9.65248437e-01  1.05789460e+00
  1.16169600e+00  1.20857892e+00  1.22386894e+00  1.26070280e+00
  1.34676899e+00  1.38432672e+00  1.40138004e+00  1.57721868e+00
  1.61933356e+00  1.62187498e+00  1.63543162e+00  1.68917930e+00
  1.69946518e+00  1.71057908e+00  1.76349001e+00  1.80232849e+00
  1.87377234e+00  1.93364984e+00  2.03039075e+00  2.06225236e+00
  2.08123346e+00  2.23267629e+00  2.24346643e+00  2.27701853e+00
  2.35227018e+00  2.39873555e+00  2.42274509e+00  2.44236073e+00
  2.46885841e+00  2.59522455e+00  2.63307950e+00  2.86891763e+00
  2.88458556e+00  2.90853557e+00  2.94173100e+00  3.18894282e+00
  3.24048983e+00  3.24875913e+00  3.24915145e+00  3.33604645e+00
  3.38430662e+00  3.52740674e+00  3.65713163e+00  3.72147270e+00
  3.82712974e+00  3.91445356e+00  3.99690726e+00  3.99847613e+00
  4.17185583e+00  4.20254964e+00  4.29068877e+00  4.33376528e+00
  4.49885556e+00  4.99959586e+00  5.03825777e+00  5.06836376e+00
  5.11192632e+00  5.16774144e+00  5.24732434e+00  5.26986535e+00
  5.33881606e+00  5.35042617e+00  5.36756611e+00  5.45155747e+00
  5.48796724e+00  5.63135342e+00  5.65023990e+00  5.69715563e+00
  5.88150633e+00  5.96515253e+00  5.98911884e+00  6.02871409e+00
  6.17455343e+00  6.25319729e+00  6.27985909e+00  6.33943931e+00
  6.52361761e+00  6.71212234e+00  6.78262836e+00  6.82464298e+00
  6.84191809e+00  6.87935573e+00  7.01352065e+00  7.16071236e+00
  7.39722070e+00  7.46643035e+00  7.48564986e+00  7.48848331e+00
  7.51633802e+00  7.52008927e+00  7.59174838e+00  7.66218035e+00
  7.75250341e+00  7.85596899e+00  7.93472567e+00  8.04316645e+00
  8.06567776e+00  8.10730144e+00  8.12669427e+00  8.31747053e+00
  8.31992615e+00  8.32296692e+00  8.38319620e+00  8.46434610e+00
  8.58823202e+00  8.87567963e+00  8.96202101e+00  9.06233626e+00
  9.32594411e+00  9.46617499e+00  9.51021667e+00  9.68131580e+00
  9.72414458e+00  9.82035840e+00  9.96153793e+00  9.99597731e+00
  1.00431950e+01  1.02627081e+01  1.05002373e+01  1.06613782e+01
  1.11370745e+01  1.11878077e+01  1.12128084e+01  1.15547619e+01
  1.17409713e+01  1.19275641e+01  1.21153882e+01  1.23820270e+01
  1.24298794e+01  1.25202739e+01  1.26695423e+01  1.34021123e+01
  1.38467115e+01  1.40113205e+01  1.95950328e+01  3.21366955e+01]
nelec by numeric integration = 11.99999937408789
    CPU time for vxc     31.53 sec, wall time      0.25 sec
    CPU time for df-vj      6.99 sec, wall time      0.05 sec
E1 = -71.1823784844829  Ecoul = 36.332132032848335  Exc = -5.751755986783374
cycle= 4 E= -22.7670109616069  delta_E= -0.00674  |g|= 0.061  |ddm|= 0.377
    CPU time for cycle= 4     94.45 sec, wall time      0.74 sec
  HOMO = -0.23213280569086  LUMO = -0.102736757623753
  mo_energy =
[-9.92546336e-01 -5.83614119e-01 -4.53127215e-01 -4.07337411e-01
 -3.78373367e-01 -2.32132806e-01 -1.02736758e-01  1.30750506e-02
  6.29344656e-02  8.86212815e-02  1.80373951e-01  1.94452734e-01
  2.36130703e-01  2.77651467e-01  3.03473187e-01  3.16120391e-01
  3.48806187e-01  3.64330581e-01  3.93076653e-01  4.26456463e-01
  5.48462107e-01  5.76668760e-01  6.17591027e-01  6.75200082e-01
  7.07202864e-01  7.26240528e-01  7.79667969e-01  7.84026586e-01
  8.96007960e-01  9.06721156e-01  9.67810367e-01  1.06099442e+00
  1.16533019e+00  1.21139790e+00  1.22708614e+00  1.26878501e+00
  1.35027498e+00  1.38740953e+00  1.40439899e+00  1.58271276e+00
  1.62507565e+00  1.62700455e+00  1.63991796e+00  1.69550922e+00
  1.70281974e+00  1.71547380e+00  1.76917860e+00  1.80678137e+00
  1.87800309e+00  1.93790697e+00  2.03559310e+00  2.06552259e+00
  2.08357325e+00  2.23647854e+00  2.24681769e+00  2.27864969e+00
  2.35571156e+00  2.40359089e+00  2.42482760e+00  2.44440951e+00
  2.47101557e+00  2.59844595e+00  2.63590767e+00  2.87289288e+00
  2.88823163e+00  2.91243799e+00  2.94463792e+00  3.19434558e+00
  3.24570969e+00  3.25322384e+00  3.25336892e+00  3.34008903e+00
  3.38839742e+00  3.53233404e+00  3.66223999e+00  3.72495314e+00
  3.83179779e+00  3.91911340e+00  3.99910410e+00  4.00210753e+00
  4.17678875e+00  4.20674997e+00  4.29430352e+00  4.33874616e+00
  4.50393564e+00  5.00941447e+00  5.04667022e+00  5.07685111e+00
  5.12016870e+00  5.17468175e+00  5.25844420e+00  5.27863779e+00
  5.34831084e+00  5.35868010e+00  5.37844067e+00  5.45958708e+00
  5.49530465e+00  5.63778794e+00  5.65921559e+00  5.70429257e+00
  5.88936620e+00  5.96996289e+00  5.99373908e+00  6.03216769e+00
  6.18054200e+00  6.25959986e+00  6.28558335e+00  6.34413612e+00
  6.52956656e+00  6.71815339e+00  6.78713660e+00  6.83561289e+00
  6.84688937e+00  6.88197205e+00  7.01824322e+00  7.16738684e+00
  7.40050318e+00  7.47016774e+00  7.48996468e+00  7.49159155e+00
  7.51869752e+00  7.52259147e+00  7.59594505e+00  7.66835604e+00
  7.75481869e+00  7.85841787e+00  7.93922929e+00  8.04692334e+00
  8.06783687e+00  8.11245383e+00  8.12880156e+00  8.32382594e+00
  8.32483071e+00  8.32682992e+00  8.38668246e+00  8.46720057e+00
  8.59276848e+00  8.87937579e+00  8.96647757e+00  9.06838331e+00
  9.32972483e+00  9.46975904e+00  9.51634975e+00  9.68721565e+00
  9.72979827e+00  9.82537058e+00  9.96691922e+00  1.00012330e+01
  1.00492920e+01  1.02692930e+01  1.05043419e+01  1.06670404e+01
  1.11421916e+01  1.11900063e+01  1.12149702e+01  1.15570931e+01
  1.17437409e+01  1.19291805e+01  1.21209653e+01  1.23864270e+01
  1.24309791e+01  1.25216278e+01  1.26736875e+01  1.34047768e+01
  1.38499510e+01  1.40154957e+01  1.96103118e+01  3.21358625e+01]
nelec by numeric integration = 11.999999388449243
    CPU time for vxc     38.43 sec, wall time      0.31 sec
    CPU time for df-vj      8.48 sec, wall time      0.07 sec
E1 = -71.15402382651766  Ecoul = 36.301487579362025  Exc = -5.7503038601119565
cycle= 5 E= -22.7678486304566  delta_E= -0.000838  |g|= 0.00674  |ddm|= 0.0798
    CPU time for cycle= 5    109.07 sec, wall time      0.87 sec
  HOMO = -0.2315657985417  LUMO = -0.10212896416591
  mo_energy =
[-9.92463979e-01 -5.82545231e-01 -4.52642539e-01 -4.06681865e-01
 -3.78069822e-01 -2.31565799e-01 -1.02128964e-01  1.34762344e-02
  6.31835425e-02  8.87402202e-02  1.80824177e-01  1.94595376e-01
  2.36191951e-01  2.77715327e-01  3.03865985e-01  3.16527497e-01
  3.49171092e-01  3.64318147e-01  3.93345738e-01  4.26324009e-01
  5.48866627e-01  5.76729779e-01  6.17960254e-01  6.75280052e-01
  7.07556085e-01  7.26619892e-01  7.79915932e-01  7.84347420e-01
  8.96388965e-01  9.07025173e-01  9.68388025e-01  1.06108791e+00
  1.16525681e+00  1.21186956e+00  1.22697524e+00  1.26908307e+00
  1.35024712e+00  1.38752029e+00  1.40429659e+00  1.58300720e+00
  1.62577588e+00  1.62741455e+00  1.64016150e+00  1.69559221e+00
  1.70337618e+00  1.71623839e+00  1.76938081e+00  1.80707841e+00
  1.87867881e+00  1.93820355e+00  2.03612705e+00  2.06588965e+00
  2.08406426e+00  2.23691708e+00  2.24714221e+00  2.27942542e+00
  2.35630534e+00  2.40381633e+00  2.42552238e+00  2.44490825e+00
  2.47158308e+00  2.59888238e+00  2.63614902e+00  2.87313035e+00
  2.88882452e+00  2.91282087e+00  2.94498273e+00  3.19464437e+00
  3.24622592e+00  3.25391496e+00  3.25406147e+00  3.34009464e+00
  3.38842161e+00  3.53279191e+00  3.66230925e+00  3.72561959e+00
  3.83208685e+00  3.91949389e+00  3.99933167e+00  4.00242626e+00
  4.17717809e+00  4.20704428e+00  4.29469566e+00  4.33889521e+00
  4.50429994e+00  5.00966305e+00  5.04705831e+00  5.07761893e+00
  5.12099893e+00  5.17532523e+00  5.25872589e+00  5.27914675e+00
  5.34924970e+00  5.35969646e+00  5.37851864e+00  5.45991085e+00
  5.49566216e+00  5.63836023e+00  5.65969423e+00  5.70512331e+00
  5.88993829e+00  5.97066111e+00  5.99447998e+00  6.03296443e+00
  6.18128029e+00  6.26035876e+00  6.28619675e+00  6.34488090e+00
  6.53017546e+00  6.71876702e+00  6.78802452e+00  6.83603944e+00
  6.84771464e+00  6.88289908e+00  7.01924385e+00  7.16819457e+00
  7.40143606e+00  7.47104215e+00  7.49083032e+00  7.49232587e+00
  7.51952669e+00  7.52351924e+00  7.59665810e+00  7.66913181e+00
  7.75578510e+00  7.85917526e+00  7.94007225e+00  8.04774939e+00
  8.06881731e+00  8.11329098e+00  8.12983621e+00  8.32386560e+00
  8.32560255e+00  8.32699406e+00  8.38723308e+00  8.46821671e+00
  8.59298950e+00  8.88002266e+00  8.96722215e+00  9.06899151e+00
  9.33082899e+00  9.47067516e+00  9.51659966e+00  9.68767353e+00
  9.73046205e+00  9.82607144e+00  9.96785488e+00  1.00019023e+01
  1.00497114e+01  1.02698699e+01  1.05052636e+01  1.06678167e+01
  1.11429091e+01  1.11907463e+01  1.12157206e+01  1.15578953e+01
  1.17445140e+01  1.19300992e+01  1.21219206e+01  1.23872415e+01
  1.24322362e+01  1.25228353e+01  1.26744743e+01  1.34059485e+01
  1.38510924e+01  1.40166688e+01  1.96108119e+01  3.21380862e+01]
nelec by numeric integration = 11.999999388898178
    CPU time for vxc     36.97 sec, wall time      0.29 sec
    CPU time for df-vj      8.05 sec, wall time      0.06 sec
E1 = -71.14563896581595  Ecoul = 36.290862680689095  Exc = -5.7480715480779105
cycle= 6 E= -22.7678563563937  delta_E= -7.73e-06  |g|= 0.000841  |ddm|= 0.00974
    CPU time for cycle= 6    109.17 sec, wall time      0.86 sec
  HOMO = -0.23166348532237  LUMO = -0.102168107163295
  mo_energy =
[-9.92527981e-01 -5.82592829e-01 -4.52669611e-01 -4.06783067e-01
 -3.78123238e-01 -2.31663485e-01 -1.02168107e-01  1.34405593e-02
  6.31521946e-02  8.86907312e-02  1.80794925e-01  1.94570973e-01
  2.36141306e-01  2.77649154e-01  3.03835744e-01  3.16503383e-01
  3.49152553e-01  3.64255800e-01  3.93297157e-01  4.26255464e-01
  5.48824921e-01  5.76693043e-01  6.17930072e-01  6.75234307e-01
  7.07528047e-01  7.26576880e-01  7.79864277e-01  7.84285689e-01
  8.96343547e-01  9.06996470e-01  9.68352832e-01  1.06102623e+00
  1.16519588e+00  1.21183658e+00  1.22690028e+00  1.26907288e+00
  1.35017727e+00  1.38745105e+00  1.40420870e+00  1.58299319e+00
  1.62575981e+00  1.62737054e+00  1.64014088e+00  1.69557406e+00
  1.70334123e+00  1.71619236e+00  1.76936077e+00  1.80702607e+00
  1.87862058e+00  1.93814250e+00  2.03610221e+00  2.06584438e+00
  2.08404322e+00  2.23687778e+00  2.24709973e+00  2.27939515e+00
  2.35627758e+00  2.40376624e+00  2.42548186e+00  2.44486973e+00
  2.47154638e+00  2.59885172e+00  2.63606511e+00  2.87308434e+00
  2.88878470e+00  2.91277482e+00  2.94492684e+00  3.19459011e+00
  3.24620983e+00  3.25388589e+00  3.25402322e+00  3.34001792e+00
  3.38834751e+00  3.53277277e+00  3.66223168e+00  3.72556071e+00
  3.83201630e+00  3.91941957e+00  3.99922165e+00  4.00230548e+00
  4.17710162e+00  4.20696403e+00  4.29461352e+00  4.33881333e+00
  4.50422269e+00  5.00966817e+00  5.04706079e+00  5.07759763e+00
  5.12097880e+00  5.17526582e+00  5.25873579e+00  5.27914671e+00
  5.34922057e+00  5.35965056e+00  5.37853207e+00  5.45988726e+00
  5.49563707e+00  5.63835278e+00  5.65967160e+00  5.70507588e+00
  5.88991261e+00  5.97064691e+00  5.99445896e+00  6.03294632e+00
  6.18125951e+00  6.26033169e+00  6.28616199e+00  6.34485711e+00
  6.53014485e+00  6.71872173e+00  6.78795474e+00  6.83605473e+00
  6.84765777e+00  6.88282628e+00  7.01920782e+00  7.16814551e+00
  7.40139959e+00  7.47100962e+00  7.49080389e+00  7.49229876e+00
  7.51950473e+00  7.52350632e+00  7.59661430e+00  7.66909981e+00
  7.75575433e+00  7.85915517e+00  7.94005650e+00  8.04771769e+00
  8.06879362e+00  8.11327419e+00  8.12980778e+00  8.32374811e+00
  8.32556372e+00  8.32688628e+00  8.38716446e+00  8.46818276e+00
  8.59289529e+00  8.87996960e+00  8.96718310e+00  9.06892473e+00
  9.33078177e+00  9.47061951e+00  9.51653592e+00  9.68762480e+00
  9.73043006e+00  9.82601799e+00  9.96782717e+00  1.00018604e+01
  1.00496480e+01  1.02698123e+01  1.05052012e+01  1.06677851e+01
  1.11428320e+01  1.11906238e+01  1.12156005e+01  1.15577739e+01
  1.17443948e+01  1.19299888e+01  1.21218718e+01  1.23871439e+01
  1.24321265e+01  1.25227273e+01  1.26743750e+01  1.34058621e+01
  1.38509855e+01  1.40165800e+01  1.96108353e+01  3.21380001e+01]
nelec by numeric integration = 11.999999389190847
    CPU time for vxc     29.08 sec, wall time      0.23 sec
    CPU time for df-vj      3.56 sec, wall time      0.03 sec
E1 = -71.14617497028172  Ecoul = 36.29152556451091  Exc = -5.7481985637660244
cycle= 7 E= -22.7678564927258  delta_E= -1.36e-07  |g|= 0.000198  |ddm|= 0.000765
    CPU time for cycle= 7     97.98 sec, wall time      0.77 sec
  HOMO = -0.231685365994962  LUMO = -0.102183055773341
  mo_energy =
[-9.92552537e-01 -5.82607104e-01 -4.52686256e-01 -4.06805511e-01
 -3.78142030e-01 -2.31685366e-01 -1.02183056e-01  1.34325407e-02
  6.31438364e-02  8.86829169e-02  1.80785759e-01  1.94564368e-01
  2.36132684e-01  2.77641471e-01  3.03828606e-01  3.16492140e-01
  3.49142455e-01  3.64247173e-01  3.93285899e-01  4.26249023e-01
  5.48816429e-01  5.76684192e-01  6.17920810e-01  6.75225324e-01
  7.07518962e-01  7.26563879e-01  7.79852880e-01  7.84275123e-01
  8.96334986e-01  9.06985671e-01  9.68340598e-01  1.06101696e+00
  1.16518669e+00  1.21182560e+00  1.22689160e+00  1.26906350e+00
  1.35016809e+00  1.38744103e+00  1.40419926e+00  1.58298289e+00
  1.62574833e+00  1.62736160e+00  1.64012833e+00  1.69556291e+00
  1.70332958e+00  1.71618310e+00  1.76935014e+00  1.80701124e+00
  1.87860893e+00  1.93812758e+00  2.03609132e+00  2.06583188e+00
  2.08403111e+00  2.23686474e+00  2.24708725e+00  2.27938254e+00
  2.35626609e+00  2.40375580e+00  2.42546873e+00  2.44485735e+00
  2.47153448e+00  2.59884002e+00  2.63605324e+00  2.87307172e+00
  2.88877066e+00  2.91276290e+00  2.94491504e+00  3.19457611e+00
  3.24619723e+00  3.25387109e+00  3.25401010e+00  3.34000631e+00
  3.38833532e+00  3.53275878e+00  3.66221447e+00  3.72554614e+00
  3.83199622e+00  3.91939979e+00  3.99920541e+00  4.00228586e+00
  4.17709026e+00  4.20694785e+00  4.29459577e+00  4.33880074e+00
  4.50420879e+00  5.00965527e+00  5.04704745e+00  5.07758552e+00
  5.12096658e+00  5.17524820e+00  5.25872355e+00  5.27913417e+00
  5.34921069e+00  5.35963998e+00  5.37851882e+00  5.45987260e+00
  5.49562101e+00  5.63833691e+00  5.65965791e+00  5.70506215e+00
  5.88989513e+00  5.97063174e+00  5.99444487e+00  6.03293233e+00
  6.18124537e+00  6.26031662e+00  6.28614251e+00  6.34484048e+00
  6.53012802e+00  6.71870593e+00  6.78793415e+00  6.83604171e+00
  6.84763219e+00  6.88279947e+00  7.01919342e+00  7.16812664e+00
  7.40138404e+00  7.47099392e+00  7.49078729e+00  7.49228323e+00
  7.51948794e+00  7.52349041e+00  7.59659377e+00  7.66908380e+00
  7.75573857e+00  7.85913886e+00  7.94003999e+00  8.04770088e+00
  8.06877654e+00  8.11325822e+00  8.12979128e+00  8.32373064e+00
  8.32554709e+00  8.32686900e+00  8.38714649e+00  8.46816546e+00
  8.59287700e+00  8.87995156e+00  8.96716340e+00  9.06890315e+00
  9.33076390e+00  9.47059934e+00  9.51651516e+00  9.68760646e+00
  9.73041183e+00  9.82600087e+00  9.96780963e+00  1.00018413e+01
  1.00496271e+01  1.02697930e+01  1.05051810e+01  1.06677638e+01
  1.11428117e+01  1.11905936e+01  1.12155706e+01  1.15577430e+01
  1.17443643e+01  1.19299577e+01  1.21218518e+01  1.23871161e+01
  1.24320877e+01  1.25226893e+01  1.26743432e+01  1.34058252e+01
  1.38509489e+01  1.40165443e+01  1.96108229e+01  3.21379450e+01]
nelec by numeric integration = 11.999999389268897
    CPU time for vxc     38.34 sec, wall time      0.31 sec
    CPU time for df-vj      7.93 sec, wall time      0.06 sec
E1 = -71.14645053385361  Ecoul = 36.29185860099114  Exc = -5.748256043125468
cycle= 8 E= -22.7678564991769  delta_E= -6.45e-09  |g|= 2.53e-05  |ddm|= 0.000215
    CPU time for cycle= 8    120.92 sec, wall time      1.00 sec
  HOMO = -0.231687112229749  LUMO = -0.102183856113043
  mo_energy =
[-9.92554081e-01 -5.82606932e-01 -4.52686278e-01 -4.06808581e-01
 -3.78143732e-01 -2.31687112e-01 -1.02183856e-01  1.34329537e-02
  6.31440260e-02  8.86824913e-02  1.80786436e-01  1.94564422e-01
  2.36132126e-01  2.77640116e-01  3.03828946e-01  3.16492560e-01
  3.49143049e-01  3.64245582e-01  3.93285130e-01  4.26247662e-01
  5.48816590e-01  5.76684084e-01  6.17921385e-01  6.75225094e-01
  7.07519418e-01  7.26563920e-01  7.79852561e-01  7.84274094e-01
  8.96334819e-01  9.06986074e-01  9.68341245e-01  1.06101595e+00
  1.16518514e+00  1.21182611e+00  1.22688981e+00  1.26906365e+00
  1.35016604e+00  1.38743992e+00  1.40419709e+00  1.58298322e+00
  1.62574906e+00  1.62736144e+00  1.64012813e+00  1.69556288e+00
  1.70333003e+00  1.71618356e+00  1.76935036e+00  1.80700989e+00
  1.87860852e+00  1.93812668e+00  2.03609162e+00  2.06583173e+00
  2.08403194e+00  2.23686506e+00  2.24708733e+00  2.27938388e+00
  2.35626671e+00  2.40375491e+00  2.42546957e+00  2.44485783e+00
  2.47153521e+00  2.59884053e+00  2.63605091e+00  2.87307159e+00
  2.88877100e+00  2.91276284e+00  2.94491491e+00  3.19457550e+00
  3.24619788e+00  3.25387152e+00  3.25401089e+00  3.34000472e+00
  3.38833364e+00  3.53275930e+00  3.66221282e+00  3.72554594e+00
  3.83199421e+00  3.91939768e+00  3.99920214e+00  4.00228282e+00
  4.17708824e+00  4.20694615e+00  4.29459413e+00  4.33879829e+00
  4.50420728e+00  5.00965524e+00  5.04704781e+00  5.07758595e+00
  5.12096724e+00  5.17524718e+00  5.25872372e+00  5.27913465e+00
  5.34921128e+00  5.35964034e+00  5.37851895e+00  5.45987262e+00
  5.49562114e+00  5.63833753e+00  5.65965780e+00  5.70506243e+00
  5.88989537e+00  5.97063270e+00  5.99444569e+00  6.03293355e+00
  6.18124612e+00  6.26031714e+00  6.28614210e+00  6.34484144e+00
  6.53012831e+00  6.71870563e+00  6.78793251e+00  6.83604209e+00
  6.84763045e+00  6.88279813e+00  7.01919443e+00  7.16812604e+00
  7.40138517e+00  7.47099496e+00  7.49078819e+00  7.49228447e+00
  7.51948921e+00  7.52349204e+00  7.59659391e+00  7.66908417e+00
  7.75573998e+00  7.85914024e+00  7.94004116e+00  8.04770173e+00
  8.06877806e+00  8.11325935e+00  8.12979289e+00  8.32372760e+00
  8.32554731e+00  8.32686639e+00  8.38714577e+00  8.46816678e+00
  8.59287486e+00  8.87995153e+00  8.96716334e+00  9.06890207e+00
  9.33076495e+00  9.47059952e+00  9.51651337e+00  9.68760602e+00
  9.73041185e+00  9.82600065e+00  9.96781061e+00  1.00018414e+01
  1.00496256e+01  1.02697927e+01  1.05051804e+01  1.06677639e+01
  1.11428105e+01  1.11905902e+01  1.12155672e+01  1.15577394e+01
  1.17443610e+01  1.19299537e+01  1.21218517e+01  1.23871138e+01
  1.24320842e+01  1.25226860e+01  1.26743403e+01  1.34058221e+01
  1.38509460e+01  1.40165415e+01  1.96108227e+01  3.21379414e+01]
nelec by numeric integration = 11.999999389287703
    CPU time for vxc     44.22 sec, wall time      0.35 sec
    CPU time for df-vj      8.06 sec, wall time      0.06 sec
E1 = -71.14648262913518  Ecoul = 36.29189650916012  Exc = -5.748261856161963
cycle= 9 E= -22.767856499326  delta_E= -1.49e-10  |g|= 1.89e-06  |ddm|= 2.92e-05
    CPU time for cycle= 9     84.60 sec, wall time      0.66 sec
  HOMO = -0.231687217787541  LUMO = -0.102183554433989
  mo_energy =
[-9.92554158e-01 -5.82606426e-01 -4.52685890e-01 -4.06808640e-01
 -3.78143673e-01 -2.31687218e-01 -1.02183554e-01  1.34331799e-02
  6.31442251e-02  8.86825922e-02  1.80786721e-01  1.94564751e-01
  2.36132180e-01  2.77640126e-01  3.03829210e-01  3.16492876e-01
  3.49143375e-01  3.64245531e-01  3.93285337e-01  4.26247648e-01
  5.48816844e-01  5.76684288e-01  6.17921612e-01  6.75225251e-01
  7.07519687e-01  7.26564107e-01  7.79852703e-01  7.84274206e-01
  8.96335013e-01  9.06986354e-01  9.68341557e-01  1.06101601e+00
  1.16518516e+00  1.21182640e+00  1.22688977e+00  1.26906425e+00
  1.35016602e+00  1.38743996e+00  1.40419701e+00  1.58298363e+00
  1.62574957e+00  1.62736177e+00  1.64012841e+00  1.69556327e+00
  1.70333033e+00  1.71618395e+00  1.76935073e+00  1.80700999e+00
  1.87860879e+00  1.93812681e+00  2.03609204e+00  2.06583192e+00
  2.08403224e+00  2.23686534e+00  2.24708754e+00  2.27938420e+00
  2.35626707e+00  2.40375508e+00  2.42546985e+00  2.44485804e+00
  2.47153548e+00  2.59884080e+00  2.63605088e+00  2.87307180e+00
  2.88877127e+00  2.91276307e+00  2.94491507e+00  3.19457570e+00
  3.24619833e+00  3.25387189e+00  3.25401132e+00  3.34000470e+00
  3.38833361e+00  3.53275969e+00  3.66221273e+00  3.72554617e+00
  3.83199415e+00  3.91939764e+00  3.99920191e+00  4.00228263e+00
  4.17708840e+00  4.20694614e+00  4.29459414e+00  4.33879838e+00
  4.50420744e+00  5.00965592e+00  5.04704843e+00  5.07758658e+00
  5.12096789e+00  5.17524743e+00  5.25872451e+00  5.27913533e+00
  5.34921200e+00  5.35964097e+00  5.37851963e+00  5.45987306e+00
  5.49562155e+00  5.63833803e+00  5.65965832e+00  5.70506294e+00
  5.88989581e+00  5.97063314e+00  5.99444613e+00  6.03293396e+00
  6.18124665e+00  6.26031763e+00  6.28614237e+00  6.34484186e+00
  6.53012868e+00  6.71870599e+00  6.78793269e+00  6.83604288e+00
  6.84763049e+00  6.88279806e+00  7.01919489e+00  7.16812639e+00
  7.40138557e+00  7.47099537e+00  7.49078860e+00  7.49228481e+00
  7.51948957e+00  7.52349248e+00  7.59659413e+00  7.66908461e+00
  7.75574035e+00  7.85914059e+00  7.94004164e+00  8.04770209e+00
  8.06877843e+00  8.11325988e+00  8.12979327e+00  8.32372729e+00
  8.32554781e+00  8.32686616e+00  8.38714586e+00  8.46816718e+00
  8.59287475e+00  8.87995172e+00  8.96716362e+00  9.06890220e+00
  9.33076535e+00  9.47059975e+00  9.51651335e+00  9.68760624e+00
  9.73041217e+00  9.82600091e+00  9.96781113e+00  1.00018417e+01
  1.00496256e+01  1.02697929e+01  1.05051807e+01  1.06677642e+01
  1.11428107e+01  1.11905897e+01  1.12155668e+01  1.15577390e+01
  1.17443607e+01  1.19299534e+01  1.21218521e+01  1.23871138e+01
  1.24320837e+01  1.25226856e+01  1.26743401e+01  1.34058217e+01
  1.38509457e+01  1.40165413e+01  1.96108237e+01  3.21379408e+01]
nelec by numeric integration = 11.999999389291984
    CPU time for vxc     42.11 sec, wall time      0.33 sec
    CPU time for df-vj      8.00 sec, wall time      0.06 sec
E1 = -71.14648691839878  Ecoul = 36.29190173939197  Exc = -5.748262797125239
Extra cycle  E= -22.767856499321  delta_E= 4.97e-12  |g|= 5.31e-06  |ddm|= 7.43e-06
    CPU time for scf_cycle   1236.41 sec, wall time     10.01 sec
    CPU time for SCF   1236.43 sec, wall time     10.01 sec
converged SCF energy = -22.767856499321
