#INFO: **** input file is /home/nkousuke/lustre/toBeSync/turboRVB/05turbo-genius-development/turbogenius_paper/04data/sanity_checks/02pyscf_prep_LDA_via_trexio/00open_boundary/results/C2H4/pyscf-LDA-workflow/run.py ****

from pyscf_wrapper import Pyscf_wrapper

# input variables
pyscf_chkfile="pyscf.chk"
structure_file="C2H4.xyz"

# input variables
omp_num_threads=128
charge=0
spin=0
basis="ccecp-ccpvqz"
ecp="ccecp"
scf_method="DFT"
dft_xc="LDA_X,LDA_C_PZ"
solver_newton=False
MP2_flag=False
CCSD_flag=False
pyscf_output="out.pyscf"
twist_average=False
exp_to_discard=0.1
kpt=[0.0, 0.0, 0.0]
kpt_grid=[1, 1, 1]
smearing_method="fermi"
smearing_sigma=0.0

pyscf_calc=Pyscf_wrapper(
                        structure_file=structure_file,
                        chkfile=pyscf_chkfile,
                        )

pyscf_calc.run_pyscf(
                  omp_num_threads=omp_num_threads,
                  charge=charge,
                  spin=spin,
                  basis=basis,
                  ecp=ecp,
                  scf_method=scf_method,
                  dft_xc=dft_xc,
                  solver_newton=solver_newton,
                  MP2_flag=MP2_flag,
                  CCSD_flag=CCSD_flag,
                  pyscf_output=pyscf_output,
                  twist_average=twist_average,
                  exp_to_discard=exp_to_discard,
                  kpt=kpt,
                  kpt_grid=kpt_grid,
                  smearing_method=smearing_method,
                  smearing_sigma=smearing_sigma
                  )
                #INFO: ******************** input file end ********************


System: uname_result(system='Linux', node='spcc-109', release='5.4.0-66-generic', version='#74-Ubuntu SMP Wed Jan 27 22:54:38 UTC 2021', machine='x86_64', processor='x86_64')  Threads 128
Python 3.7.3 (default, Mar 27 2019, 22:11:17) 
[GCC 7.3.0]
numpy 1.20.1  scipy 1.7.3
Date: Thu Dec 22 06:20:51 2022
PySCF version 2.0.1
PySCF path  /home/nkousuke/application/anaconda3/lib/python3.7/site-packages/pyscf

[CONFIG] conf_file /home/nkousuke/.pyscf_conf.py
[INPUT] verbose = 5
[INPUT] max_memory = 507812.12890625 
[INPUT] num. atoms = 6
[INPUT] num. electrons = 12
[INPUT] charge = 0
[INPUT] spin (= nelec alpha-beta = 2S) = 0
[INPUT] symmetry False subgroup None
[INPUT] Mole.unit = A
[INPUT]  1 C      0.000000000000   0.000000000000   0.665400000000 AA    0.000000000000   0.000000000000   1.257423763286 Bohr
[INPUT]  2 C      0.000000000000   0.000000000000  -0.665400000000 AA    0.000000000000   0.000000000000  -1.257423763286 Bohr
[INPUT]  3 H      0.000000000000   0.942096000000   1.194080000000 AA    0.000000000000   1.780303423048   2.256484170821 Bohr
[INPUT]  4 H      0.000000000000  -0.942096000000   1.194080000000 AA    0.000000000000  -1.780303423048   2.256484170821 Bohr
[INPUT]  5 H      0.000000000000   0.942096000000  -1.194080000000 AA    0.000000000000   1.780303423048  -2.256484170821 Bohr
[INPUT]  6 H      0.000000000000  -0.942096000000  -1.194080000000 AA    0.000000000000  -1.780303423048  -2.256484170821 Bohr
[INPUT] ---------------- BASIS SET ---------------- 
[INPUT] l, kappa, [nprim/nctr], expnt,             c_1 c_2 ...
[INPUT] C
[INPUT] 0    0    [9    /1   ]  13.073594         0.0051583
                                6.541187          0.0603424
                                4.573411          -0.1978471
                                1.637494          -0.081034
                                0.819297          0.2321726
                                0.409924          0.2914643
                                0.2313            0.4336405
                                0.102619          0.213194
                                0.051344          0.0049848
[INPUT] 0    0    [1    /1   ]  0.846879             1
[INPUT] 0    0    [1    /1   ]  0.269659             1
[INPUT] 0    0    [1    /1   ]  0.109576             1
[INPUT] 1    0    [9    /1   ]  9.934169          0.0209076
                                3.886955          0.0572698
                                1.871016          0.1122682
                                0.935757          0.2130082
                                0.468003          0.2835815
                                0.239473          0.3011207
                                0.117063          0.2016934
                                0.058547          0.0453575
                                0.029281          0.0029775
[INPUT] 1    0    [1    /1   ]  0.804681             1
[INPUT] 1    0    [1    /1   ]  0.313254             1
[INPUT] 1    0    [1    /1   ]  0.105389             1
[INPUT] 2    0    [1    /1   ]  2.01376              1
[INPUT] 2    0    [1    /1   ]  0.684884             1
[INPUT] 2    0    [1    /1   ]  0.240171             1
[INPUT] 3    0    [1    /1   ]  0.457302             1
[INPUT] 3    0    [1    /1   ]  1.32493              1
[INPUT] 4    0    [1    /1   ]  1.03418              1
[INPUT] H
[INPUT] 0    0    [8    /1   ]  23.843185         0.0041149
                                10.212443         0.0104644
                                4.374164          0.0280111
                                1.873529          0.0758862
                                0.802465          0.1821062
                                0.343709          0.3485214
                                0.147217          0.3782313
                                0.063055          0.1164241
[INPUT] 0    0    [1    /1   ]  0.081856             1
[INPUT] 0    0    [1    /1   ]  0.233254             1
[INPUT] 0    0    [1    /1   ]  0.664673             1
[INPUT] 1    0    [1    /1   ]  0.284469             1
[INPUT] 1    0    [1    /1   ]  0.847159             1
[INPUT] 1    0    [1    /1   ]  2.522868             1
[INPUT] 2    0    [1    /1   ]  0.665279             1
[INPUT] 2    0    [1    /1   ]  2.048739             1
[INPUT] 3    0    [1    /1   ]  1.42146              1

nuclear repulsion = 19.6142642390288
number of shells = 68
number of NR pGTOs = 320
number of NR cGTOs = 228
basis = ccecp-ccpvqz
ecp = ccecp
CPU time:         8.03


******** <class 'pyscf.df.df_jk.density_fit.<locals>.DFHF'> ********
method = DFHF-RKS-RHF
initial guess = minao
damping factor = 0
level_shift factor = 0
DIIS = <class 'pyscf.scf.diis.CDIIS'>
diis_start_cycle = 1
diis_space = 8
SCF conv_tol = 1e-09
SCF conv_tol_grad = None
SCF max_cycles = 200
direct_scf = True
direct_scf_tol = 1e-13
chkfile to save SCF result = pyscf.chk
max_memory 507812 MB (current use 106 MB)
XC library pyscf.dft.libxc version 5.1.7
    S. Lehtola, C. Steigemann, M. J. Oliveira, and M. A. Marques, SoftwareX 7, 1 (2018)
XC functionals = LDA_X,LDA_C_PZ
    P. A. M. Dirac, Math. Proc. Cambridge Philos. Soc. 26, 376 (1930)
    F. Bloch, Z. Phys. 57, 545 (1929)
    J. P. Perdew and A. Zunger, Phys. Rev. B 23, 5048 (1981)
radial grids: 
    Treutler-Ahlrichs [JCP 102, 346 (1995); DOI:10.1063/1.469408] (M4) radial grids
    
becke partition: Becke, JCP 88, 2547 (1988); DOI:10.1063/1.454033
pruning grids: <function nwchem_prune at 0x1509827a37b8>
grids dens level: 3
symmetrized grids: False
atomic radii adjust function: <function treutler_atomic_radii_adjust at 0x1509827a36a8>
small_rho_cutoff = 1e-07
Set gradient conv threshold to 3.16228e-05
atom C rad-grids = 75, ang-grids = [ 50  50  50  50  50  50  50  50  50  50  50  50  50  50  50  50  50  50
  50  50  50  50  50  86  86  86  86  86  86  86  86  86  86 266 266 266
 266 266 266 266 302 302 302 302 302 302 302 302 302 302 302 302 302 302
 302 302 302 302 302 302 266 266 266 266 266 266 266 266 266 266 266 266
 266 266 266]
atom H rad-grids = 50, ang-grids = [ 50  50  50  50  50  50  50  50  50  50  50  50  50  50  86  86  86  86
 266 266 266 266 302 302 302 302 302 302 302 302 302 302 302 302 302 266
 266 266 266 266 266 266 266 266 266 266 266 266 266 266]
tot grids = 67900
Drop grids 6748
    CPU time for setting up grids     20.88 sec, wall time      0.19 sec
nelec by numeric integration = 11.999818980130192
    CPU time for vxc     42.95 sec, wall time      0.34 sec
Even tempered Gaussians are generated as DF auxbasis for  C H
  ETB auxbasis for C  [[0, [13.144064, 1]], [0, [6.572032, 1]], [0, [3.286016, 1]], [0, [1.643008, 1]], [0, [0.821504, 1]], [0, [0.410752, 1]], [0, [0.205376, 1]], [0, [0.102688, 1]], [1, [19.852159834527225, 1]], [1, [9.926079917263612, 1]], [1, [4.963039958631806, 1]], [1, [2.481519979315903, 1]], [1, [1.2407599896579515, 1]], [1, [0.6203799948289758, 1]], [1, [0.3101899974144879, 1]], [1, [0.15509499870724394, 1]], [1, [0.07754749935362197, 1]], [2, [14.991872, 1]], [2, [7.495936, 1]], [2, [3.747968, 1]], [2, [1.873984, 1]], [2, [0.936992, 1]], [2, [0.468496, 1]], [2, [0.234248, 1]], [2, [0.117124, 1]], [2, [0.058562, 1]], [3, [5.36701994787573, 1]], [3, [2.683509973937865, 1]], [3, [1.3417549869689325, 1]], [3, [0.6708774934844662, 1]], [3, [0.3354387467422331, 1]], [3, [0.16771937337111656, 1]], [4, [3.842736, 1]], [4, [1.921368, 1]], [4, [0.960684, 1]], [4, [0.480342, 1]]]
  ETB auxbasis for H  [[0, [32.28416, 1]], [0, [16.14208, 1]], [0, [8.07104, 1]], [0, [4.03552, 1]], [0, [2.01776, 1]], [0, [1.00888, 1]], [0, [0.50444, 1]], [0, [0.25222, 1]], [0, [0.12611, 1]], [1, [8.571507550502421, 1]], [1, [4.2857537752512105, 1]], [1, [2.1428768876256052, 1]], [1, [1.0714384438128026, 1]], [1, [0.5357192219064013, 1]], [1, [0.26785961095320066, 1]], [2, [4.551504, 1]], [2, [2.275752, 1]], [2, [1.137876, 1]], [2, [0.568938, 1]]]
num shells = 148, num cGTOs = 504
    CPU time for df-vj     30.71 sec, wall time      0.24 sec
E1 = -56.28326110165646  Ecoul = 28.0861969298928  Exc = -4.515549070770119
init E= -13.098349003505
cond(S) = 118621.77569725871
    CPU time for initialize scf    299.31 sec, wall time      2.50 sec
  HOMO = -0.371752476891119  LUMO = -0.141411455052896
  mo_energy =
[-8.55138251e-01 -6.26142543e-01 -5.44286704e-01 -5.02092768e-01
 -4.13701097e-01 -3.71752477e-01 -1.41411455e-01 -1.32973586e-02
  8.95033481e-03  2.40234399e-02  8.37783575e-02  1.13573260e-01
  1.50434999e-01  1.53079061e-01  1.57648735e-01  1.69457632e-01
  2.32692989e-01  2.51765323e-01  2.70389505e-01  2.72128430e-01
  2.81207223e-01  3.16357378e-01  3.26452858e-01  3.75286631e-01
  4.15596986e-01  4.55749279e-01  5.08308375e-01  5.37582681e-01
  5.56651213e-01  6.06330119e-01  6.37760474e-01  6.47708643e-01
  6.82645391e-01  7.07948439e-01  7.15049994e-01  7.23038162e-01
  7.62014147e-01  7.74210756e-01  8.77809686e-01  8.78863967e-01
  8.91913133e-01  9.03779195e-01  9.21678603e-01  9.67928755e-01
  1.00581124e+00  1.04332522e+00  1.14175412e+00  1.18974877e+00
  1.33006513e+00  1.34628957e+00  1.35182341e+00  1.38093016e+00
  1.42012708e+00  1.47707093e+00  1.48316161e+00  1.52890483e+00
  1.55156683e+00  1.57571210e+00  1.61391763e+00  1.62970669e+00
  1.69333736e+00  1.71163717e+00  1.72459109e+00  1.72844383e+00
  1.75561603e+00  1.76290264e+00  1.83367108e+00  1.86354839e+00
  1.89092384e+00  1.90457325e+00  1.97758776e+00  2.00043168e+00
  2.00069412e+00  2.06092188e+00  2.13143099e+00  2.20298195e+00
  2.23378155e+00  2.23661757e+00  2.25817604e+00  2.26499460e+00
  2.30062810e+00  2.33163302e+00  2.33293258e+00  2.36281307e+00
  2.44800025e+00  2.46447557e+00  2.47062930e+00  2.57451588e+00
  2.62019129e+00  2.67502862e+00  2.67758342e+00  2.80850651e+00
  2.86158594e+00  2.87982644e+00  2.90099566e+00  2.92524759e+00
  2.98486024e+00  3.02725968e+00  3.22996342e+00  3.25847035e+00
  3.30073008e+00  3.34355631e+00  3.41206368e+00  3.43686125e+00
  3.47841636e+00  3.48087129e+00  3.54634159e+00  3.62025804e+00
  3.63836347e+00  3.64953962e+00  3.74596791e+00  4.03695911e+00
  4.07113080e+00  4.07930808e+00  4.58917380e+00  4.61593824e+00
  4.72127518e+00  4.72799371e+00  4.80114229e+00  4.87082720e+00
  4.94979384e+00  5.06978840e+00  5.08711278e+00  5.10828185e+00
  5.16532129e+00  5.16544476e+00  5.17665666e+00  5.20512475e+00
  5.22400117e+00  5.26953202e+00  5.29629162e+00  5.33596126e+00
  5.43824854e+00  5.47930972e+00  5.49407660e+00  5.53022630e+00
  5.58587382e+00  5.61685336e+00  5.66634655e+00  5.68880380e+00
  5.70993646e+00  5.79054517e+00  5.90440846e+00  5.92783772e+00
  5.96854340e+00  5.98773479e+00  6.00847999e+00  6.03688314e+00
  6.14298125e+00  6.17713455e+00  6.17818432e+00  6.19226588e+00
  6.20995443e+00  6.23763274e+00  6.27311393e+00  6.29657319e+00
  6.29672816e+00  6.36087677e+00  6.46689700e+00  6.66647777e+00
  6.72650444e+00  6.76226733e+00  6.78419333e+00  6.85174800e+00
  7.01647737e+00  7.16013539e+00  7.23969166e+00  7.28270705e+00
  7.29167884e+00  7.32369130e+00  7.34036561e+00  7.41155019e+00
  7.43906784e+00  7.47046658e+00  7.47247535e+00  7.50369834e+00
  7.54079405e+00  7.55491971e+00  7.61568881e+00  7.62199852e+00
  7.64026311e+00  7.68023829e+00  7.79410141e+00  7.85180201e+00
  7.90194374e+00  7.94836477e+00  8.00441972e+00  8.06974198e+00
  8.08936442e+00  8.14236327e+00  8.21676982e+00  8.22411315e+00
  8.24188302e+00  8.24221034e+00  8.30093353e+00  8.34410345e+00
  8.35268010e+00  8.36114001e+00  8.45915182e+00  8.54953626e+00
  8.56728729e+00  8.63578821e+00  8.79566184e+00  8.83328848e+00
  9.04638238e+00  9.06727115e+00  9.16971421e+00  9.26585717e+00
  9.60564442e+00  9.71490361e+00  9.71543620e+00  9.81884743e+00
  9.88176360e+00  9.90433193e+00  9.98853523e+00  1.01092061e+01
  1.01206473e+01  1.02093015e+01  1.05124760e+01  1.05404044e+01
  1.08268135e+01  1.08334084e+01  1.11355021e+01  1.17125188e+01
  1.22544590e+01  1.25251030e+01  1.95042176e+01  1.95077104e+01]
nelec by numeric integration = 11.99999465840428
    CPU time for vxc     37.11 sec, wall time      0.29 sec
    CPU time for df-vj      8.13 sec, wall time      0.06 sec
E1 = -59.32428474098496  Ecoul = 31.201714227124448  Exc = -5.001963456620598
cycle= 1 E= -13.5102697314523  delta_E= -0.412  |g|= 0.634  |ddm|= 5.37
    CPU time for cycle= 1     65.65 sec, wall time      0.54 sec
  HOMO = -0.122450675761831  LUMO = 0.0528865518197524
  mo_energy =
[-0.5427775  -0.42039698 -0.3259895  -0.23217345 -0.21560065 -0.12245068
  0.05288655  0.05955259  0.07972193  0.0852684   0.13447656  0.18003364
  0.21630988  0.26364895  0.26502468  0.27220973  0.34107551  0.35542925
  0.37122117  0.37288611  0.37850316  0.39125835  0.44030807  0.48986954
  0.55286648  0.56401368  0.57246918  0.62865061  0.6316315   0.66292041
  0.73257141  0.73819008  0.75200363  0.79788378  0.81624957  0.85036414
  0.8594904   0.86272331  0.94150382  0.97965907  1.00824458  1.02102785
  1.02695222  1.08700746  1.10150175  1.16778777  1.22434629  1.41713873
  1.44144825  1.4525919   1.52656475  1.56194233  1.57876453  1.58420713
  1.68080079  1.72869787  1.73837353  1.78567201  1.7885755   1.79144743
  1.84809283  1.85541356  1.87315711  1.88084967  1.88092263  1.91021522
  1.97767395  2.00313487  2.01405842  2.04028225  2.1307547   2.14958137
  2.15757084  2.16912055  2.28043402  2.28663265  2.35218426  2.36111075
  2.38084758  2.38429696  2.4057868   2.41738348  2.43212073  2.47458851
  2.52699562  2.55198486  2.59999757  2.67928646  2.72145923  2.76871231
  2.78358078  2.95272935  2.9948833   3.02956735  3.07906725  3.12462782
  3.13269608  3.16218096  3.38377951  3.42455361  3.47400996  3.51468467
  3.55884467  3.5932434   3.6053594   3.67197805  3.7045099   3.79459355
  3.81052956  3.86193471  3.941882    4.171146    4.22367496  4.24036205
  4.9286301   4.95148946  4.99669567  5.03693173  5.1145261   5.13801242
  5.24261896  5.31188309  5.36749361  5.40115221  5.4029101   5.42419121
  5.43485998  5.44099414  5.47403232  5.51481953  5.53165455  5.63197171
  5.6967192   5.70194852  5.75181251  5.80361645  5.83109108  5.83446093
  5.84980381  5.89258583  5.95583741  5.98237609  6.06769483  6.07154996
  6.11095812  6.20725306  6.25811995  6.29257688  6.36221906  6.38784173
  6.40106554  6.4198774   6.45053923  6.46264722  6.48990124  6.53077132
  6.53815587  6.55359794  6.67668299  6.9093233   6.96062881  6.97998481
  7.06085786  7.10004301  7.25528495  7.37886261  7.40298293  7.47531851
  7.49787766  7.49994882  7.54848805  7.55662243  7.61081439  7.61198275
  7.61330507  7.61631121  7.64194109  7.6534035   7.75305357  7.76284737
  7.77123495  7.787693    7.90039346  7.97578885  8.05113471  8.06481178
  8.12852426  8.16742995  8.18760135  8.31414788  8.32240263  8.40989696
  8.41745304  8.4294126   8.48905174  8.52528024  8.55445324  8.60542379
  8.6380105   8.69744676  8.76776598  8.89602731  9.03161926  9.09128706
  9.20591748  9.25633807  9.32500488  9.42855161  9.75525568  9.895312
  9.92057946 10.01767852 10.09624334 10.12198245 10.16724213 10.31271342
 10.32321937 10.41296524 10.72319191 10.75211978 11.02433394 11.08601937
 11.42536161 11.94985884 12.48795254 12.76274821 19.94421848 19.95565178]
nelec by numeric integration = 11.999983320876389
    CPU time for vxc     37.54 sec, wall time      0.30 sec
    CPU time for df-vj      7.99 sec, wall time      0.06 sec
E1 = -55.79229848404838  Ecoul = 27.21042646127174  Exc = -4.428973212077729
cycle= 2 E= -13.3965809958256  delta_E= 0.114  |g|= 0.874  |ddm|= 2.51
    CPU time for cycle= 2    118.44 sec, wall time      0.94 sec
  HOMO = -0.258837767644075  LUMO = -0.044358576278217
  mo_energy =
[-7.05172056e-01 -5.24885989e-01 -4.36110205e-01 -3.70884802e-01
 -3.19338576e-01 -2.58837768e-01 -4.43585763e-02  1.81714364e-02
  4.71587407e-02  5.19103666e-02  1.09400648e-01  1.45810550e-01
  1.87887331e-01  1.97840423e-01  2.02139642e-01  2.16631829e-01
  2.78698278e-01  2.97700077e-01  3.12016350e-01  3.18918887e-01
  3.20821631e-01  3.47893651e-01  3.79637429e-01  4.51163889e-01
  4.59207014e-01  5.05723526e-01  5.37722301e-01  5.80887855e-01
  5.89317151e-01  6.33279184e-01  6.83820475e-01  6.85090708e-01
  7.14986831e-01  7.50575226e-01  7.58975851e-01  7.86666088e-01
  7.99853316e-01  8.12082759e-01  9.16674772e-01  9.23553070e-01
  9.41454234e-01  9.58124492e-01  9.60905374e-01  1.01395797e+00
  1.04753646e+00  1.10232658e+00  1.18148515e+00  1.28386374e+00
  1.38216008e+00  1.39850591e+00  1.42288647e+00  1.46602620e+00
  1.48257110e+00  1.52896718e+00  1.57379906e+00  1.62021865e+00
  1.63117086e+00  1.65858353e+00  1.69581659e+00  1.69599546e+00
  1.78086858e+00  1.78397809e+00  1.79042564e+00  1.79544809e+00
  1.80869787e+00  1.82462632e+00  1.89685115e+00  1.92498268e+00
  1.94776288e+00  1.96625236e+00  2.05706644e+00  2.06064985e+00
  2.07473116e+00  2.10308778e+00  2.20097708e+00  2.24505968e+00
  2.29037828e+00  2.30178847e+00  2.31376921e+00  2.31453980e+00
  2.35855031e+00  2.36897485e+00  2.38026517e+00  2.41490244e+00
  2.48651624e+00  2.50625847e+00  2.53285519e+00  2.62196562e+00
  2.66732663e+00  2.71987813e+00  2.72420405e+00  2.87556469e+00
  2.92439893e+00  2.96090832e+00  2.96979743e+00  3.01796035e+00
  3.04877239e+00  3.08704420e+00  3.30372268e+00  3.33260370e+00
  3.38120356e+00  3.42815912e+00  3.47745735e+00  3.50934756e+00
  3.53680880e+00  3.58333599e+00  3.60573432e+00  3.70827035e+00
  3.72333582e+00  3.72429686e+00  3.83862255e+00  4.09945556e+00
  4.14845670e+00  4.14909739e+00  4.73833103e+00  4.76496156e+00
  4.84414141e+00  4.86452505e+00  4.93954306e+00  4.98900613e+00
  5.08107578e+00  5.17705861e+00  5.21406336e+00  5.24689481e+00
  5.26983825e+00  5.28139801e+00  5.28197555e+00  5.32554117e+00
  5.32587889e+00  5.37802303e+00  5.40424309e+00  5.46289729e+00
  5.55903916e+00  5.58049408e+00  5.61079817e+00  5.66589449e+00
  5.70496028e+00  5.70812879e+00  5.74812206e+00  5.79584144e+00
  5.80718562e+00  5.87890207e+00  5.98301563e+00  5.99715129e+00
  6.04706707e+00  6.07821490e+00  6.12139679e+00  6.15316379e+00
  6.24022259e+00  6.28633978e+00  6.29363504e+00  6.29859951e+00
  6.30115093e+00  6.35139685e+00  6.36184629e+00  6.40605411e+00
  6.41089611e+00  6.44164785e+00  6.56384723e+00  6.78071085e+00
  6.84190715e+00  6.87128420e+00  6.89712508e+00  6.96588628e+00
  7.12819761e+00  7.26741329e+00  7.31086990e+00  7.37341541e+00
  7.38612417e+00  7.41094821e+00  7.47444875e+00  7.48104325e+00
  7.50141079e+00  7.53777652e+00  7.54058295e+00  7.56063453e+00
  7.59362228e+00  7.60774720e+00  7.68005962e+00  7.69116623e+00
  7.69750968e+00  7.73648765e+00  7.84931749e+00  7.91418531e+00
  7.98703569e+00  8.00149843e+00  8.07029215e+00  8.12380793e+00
  8.14312707e+00  8.22532859e+00  8.27611682e+00  8.31126411e+00
  8.33422296e+00  8.34138680e+00  8.42757553e+00  8.42979270e+00
  8.43658520e+00  8.45233353e+00  8.52635582e+00  8.63637791e+00
  8.70247277e+00  8.70693800e+00  8.92603161e+00  8.93180861e+00
  9.14002438e+00  9.15161641e+00  9.24784047e+00  9.35038658e+00
  9.68310473e+00  9.80245456e+00  9.81175380e+00  9.91424874e+00
  9.99346237e+00  9.99939592e+00  1.00749869e+01  1.02095438e+01
  1.02162119e+01  1.03113320e+01  1.06149278e+01  1.06431399e+01
  1.09246579e+01  1.09516948e+01  1.12699628e+01  1.18250966e+01
  1.23674233e+01  1.26394692e+01  1.96968730e+01  1.97039594e+01]
nelec by numeric integration = 11.999990926346024
    CPU time for vxc     34.41 sec, wall time      0.31 sec
    CPU time for df-vj      8.48 sec, wall time      0.07 sec
E1 = -58.02478551117854  Ecoul = 29.548751726041147  Exc = -4.757398476822352
cycle= 3 E= -13.619168022931  delta_E= -0.223  |g|= 0.0154  |ddm|= 1.48
    CPU time for cycle= 3    128.02 sec, wall time      1.14 sec
  HOMO = -0.253502813834723  LUMO = -0.0405068687494136
  mo_energy =
[-6.99892002e-01 -5.21814718e-01 -4.32263725e-01 -3.67438782e-01
 -3.16458600e-01 -2.53502814e-01 -4.05068687e-02  1.89656258e-02
  4.77899269e-02  5.19887236e-02  1.09462893e-01  1.46885303e-01
  1.88628751e-01  2.00173275e-01  2.04986987e-01  2.18675685e-01
  2.80434731e-01  2.99517997e-01  3.13478223e-01  3.22041339e-01
  3.22346072e-01  3.48780773e-01  3.80610609e-01  4.52866181e-01
  4.61752494e-01  5.08632996e-01  5.38484908e-01  5.83015152e-01
  5.91104821e-01  6.33950111e-01  6.85996444e-01  6.86716683e-01
  7.16126332e-01  7.52703359e-01  7.60899274e-01  7.88619479e-01
  8.01549149e-01  8.14047861e-01  9.17188029e-01  9.24755612e-01
  9.43290198e-01  9.58954357e-01  9.62065381e-01  1.01553025e+00
  1.04991617e+00  1.10441382e+00  1.18334117e+00  1.28812947e+00
  1.38450868e+00  1.40041588e+00  1.42764635e+00  1.47017883e+00
  1.48648595e+00  1.53104077e+00  1.57873654e+00  1.62488240e+00
  1.63582798e+00  1.66371889e+00  1.69946775e+00  1.70008730e+00
  1.78363394e+00  1.78693194e+00  1.79243525e+00  1.79840999e+00
  1.81041436e+00  1.82745828e+00  1.90000916e+00  1.92873718e+00
  1.95090464e+00  1.96956130e+00  2.06034272e+00  2.06406918e+00
  2.07847655e+00  2.10551716e+00  2.20363648e+00  2.24677315e+00
  2.29255309e+00  2.30480739e+00  2.31527142e+00  2.31696239e+00
  2.36004223e+00  2.37039557e+00  2.38209567e+00  2.41662152e+00
  2.48817793e+00  2.50803233e+00  2.53525296e+00  2.62444664e+00
  2.66926327e+00  2.72197577e+00  2.72699980e+00  2.87789102e+00
  2.92623513e+00  2.96341377e+00  2.97254033e+00  3.02205604e+00
  3.05170835e+00  3.09013298e+00  3.30588074e+00  3.33630127e+00
  3.38361214e+00  3.43059228e+00  3.47996980e+00  3.51121312e+00
  3.53984142e+00  3.58651728e+00  3.60815228e+00  3.71177386e+00
  3.72613364e+00  3.72838841e+00  3.84158858e+00  4.10192350e+00
  4.15169191e+00  4.15235757e+00  4.74382965e+00  4.77084148e+00
  4.84914179e+00  4.87036220e+00  4.94439940e+00  4.99442666e+00
  5.08461771e+00  5.18227830e+00  5.21874165e+00  5.25173958e+00
  5.27393844e+00  5.28493283e+00  5.28606868e+00  5.32941163e+00
  5.32967025e+00  5.38324954e+00  5.40793829e+00  5.46763654e+00
  5.56167316e+00  5.58533209e+00  5.61458700e+00  5.66976643e+00
  5.70906145e+00  5.71088746e+00  5.75124475e+00  5.79942637e+00
  5.81133249e+00  5.88257253e+00  5.98628788e+00  6.00011427e+00
  6.05010765e+00  6.08165682e+00  6.12449603e+00  6.15644766e+00
  6.24413235e+00  6.28992440e+00  6.29712228e+00  6.30216159e+00
  6.30562301e+00  6.35434888e+00  6.36468036e+00  6.40936647e+00
  6.41518679e+00  6.44472918e+00  6.56671113e+00  6.78417434e+00
  6.84629976e+00  6.87432586e+00  6.90060752e+00  6.96920940e+00
  7.13167792e+00  7.27095583e+00  7.31315271e+00  7.37661458e+00
  7.38982022e+00  7.41399390e+00  7.47710157e+00  7.48319183e+00
  7.50347304e+00  7.54013208e+00  7.54277958e+00  7.56243914e+00
  7.59578096e+00  7.60914034e+00  7.68232940e+00  7.69345728e+00
  7.69946313e+00  7.73810259e+00  7.85114193e+00  7.91571339e+00
  7.99015385e+00  8.00324033e+00  8.07325982e+00  8.12617033e+00
  8.14545028e+00  8.22911506e+00  8.27804341e+00  8.31383337e+00
  8.33708063e+00  8.34424882e+00  8.43019817e+00  8.43245150e+00
  8.43895962e+00  8.45499439e+00  8.52873682e+00  8.63912154e+00
  8.70681673e+00  8.70962186e+00  8.93019074e+00  8.93409370e+00
  9.14298362e+00  9.15487676e+00  9.25053708e+00  9.35309949e+00
  9.68576041e+00  9.80569203e+00  9.81499905e+00  9.91762620e+00
  9.99641007e+00  1.00019806e+01  1.00782367e+01  1.02123693e+01
  1.02194643e+01  1.03139953e+01  1.06176980e+01  1.06460505e+01
  1.09275121e+01  1.09542481e+01  1.12725141e+01  1.18283762e+01
  1.23696805e+01  1.26417083e+01  1.96978614e+01  1.97050078e+01]
nelec by numeric integration = 11.99999080847874
    CPU time for vxc     41.89 sec, wall time      0.34 sec
    CPU time for df-vj      8.44 sec, wall time      0.07 sec
E1 = -57.99024915434519  Ecoul = 29.509230320500368  Exc = -4.752500102360552
cycle= 4 E= -13.6192546971766  delta_E= -8.67e-05  |g|= 0.00202  |ddm|= 0.0339
    CPU time for cycle= 4    125.01 sec, wall time      1.08 sec
  HOMO = -0.253671884107483  LUMO = -0.0405122177879744
  mo_energy =
[-7.00072268e-01 -5.21597508e-01 -4.32377754e-01 -3.67326216e-01
 -3.16450696e-01 -2.53671884e-01 -4.05122178e-02  1.88225982e-02
  4.75941753e-02  5.19053439e-02  1.09322520e-01  1.46793226e-01
  1.88599846e-01  1.99927400e-01  2.04708711e-01  2.18520343e-01
  2.80296097e-01  2.99378733e-01  3.13281636e-01  3.21995788e-01
  3.22103672e-01  3.48711162e-01  3.80495846e-01  4.52721425e-01
  4.61750012e-01  5.08552153e-01  5.38346634e-01  5.82796471e-01
  5.90876210e-01  6.33796457e-01  6.85800860e-01  6.86750519e-01
  7.15963560e-01  7.52445430e-01  7.60755495e-01  7.88575308e-01
  8.01506662e-01  8.13893705e-01  9.17062132e-01  9.24540362e-01
  9.43225493e-01  9.58840184e-01  9.61921116e-01  1.01538557e+00
  1.04970629e+00  1.10429570e+00  1.18319630e+00  1.28797202e+00
  1.38436998e+00  1.40031603e+00  1.42745991e+00  1.47006068e+00
  1.48631264e+00  1.53094183e+00  1.57853513e+00  1.62471084e+00
  1.63551018e+00  1.66348510e+00  1.69928045e+00  1.69994507e+00
  1.78377424e+00  1.78694672e+00  1.79258269e+00  1.79850630e+00
  1.81037639e+00  1.82737281e+00  1.89984919e+00  1.92863625e+00
  1.95076392e+00  1.96947549e+00  2.06036866e+00  2.06412975e+00
  2.07838205e+00  2.10537067e+00  2.20348189e+00  2.24673844e+00
  2.29245664e+00  2.30477442e+00  2.31528933e+00  2.31679350e+00
  2.36000729e+00  2.37034636e+00  2.38201334e+00  2.41655176e+00
  2.48809927e+00  2.50792283e+00  2.53510611e+00  2.62428288e+00
  2.66922072e+00  2.72184732e+00  2.72690136e+00  2.87774591e+00
  2.92616934e+00  2.96329710e+00  2.97247927e+00  3.02210774e+00
  3.05160101e+00  3.08998748e+00  3.30581555e+00  3.33617665e+00
  3.38351204e+00  3.43060165e+00  3.47990321e+00  3.51127301e+00
  3.53979181e+00  3.58667988e+00  3.60807168e+00  3.71168313e+00
  3.72605940e+00  3.72823191e+00  3.84153397e+00  4.10196586e+00
  4.15164118e+00  4.15224887e+00  4.74369087e+00  4.77063290e+00
  4.84904111e+00  4.87009741e+00  4.94417734e+00  4.99420734e+00
  5.08462383e+00  5.18207151e+00  5.21856243e+00  5.25162886e+00
  5.27418228e+00  5.28511970e+00  5.28630517e+00  5.32963009e+00
  5.32969548e+00  5.38305629e+00  5.40805017e+00  5.46754319e+00
  5.56174921e+00  5.58515706e+00  5.61473635e+00  5.66978982e+00
  5.70924944e+00  5.71090193e+00  5.75125871e+00  5.79951915e+00
  5.81133496e+00  5.88257400e+00  5.98641813e+00  6.00012906e+00
  6.05011617e+00  6.08153505e+00  6.12443793e+00  6.15644572e+00
  6.24408293e+00  6.28986786e+00  6.29713171e+00  6.30213047e+00
  6.30561881e+00  6.35438328e+00  6.36473616e+00  6.40946786e+00
  6.41503781e+00  6.44475751e+00  6.56677181e+00  6.78426573e+00
  6.84626327e+00  6.87435088e+00  6.90052869e+00  6.96931230e+00
  7.13160628e+00  7.27107869e+00  7.31314378e+00  7.37655124e+00
  7.38973622e+00  7.41397544e+00  7.47716268e+00  7.48315553e+00
  7.50353250e+00  7.54013148e+00  7.54277680e+00  7.56245265e+00
  7.59574372e+00  7.60911873e+00  7.68229498e+00  7.69344602e+00
  7.69944975e+00  7.73816050e+00  7.85110255e+00  7.91566223e+00
  7.99015917e+00  8.00324231e+00  8.07333406e+00  8.12620356e+00
  8.14547766e+00  8.22911776e+00  8.27811098e+00  8.31382480e+00
  8.33709381e+00  8.34427029e+00  8.43019362e+00  8.43252190e+00
  8.43904710e+00  8.45518292e+00  8.52873918e+00  8.63915840e+00
  8.70691796e+00  8.70974191e+00  8.93016664e+00  8.93423280e+00
  9.14301948e+00  9.15490044e+00  9.25056364e+00  9.35323325e+00
  9.68580267e+00  9.80572337e+00  9.81499528e+00  9.91755404e+00
  9.99649164e+00  1.00020388e+01  1.00782557e+01  1.02124171e+01
  1.02194864e+01  1.03140603e+01  1.06177329e+01  1.06461387e+01
  1.09276305e+01  1.09543053e+01  1.12725592e+01  1.18283743e+01
  1.23697552e+01  1.26417908e+01  1.96980685e+01  1.97051945e+01]
nelec by numeric integration = 11.999990800506975
    CPU time for vxc     41.76 sec, wall time      0.34 sec
    CPU time for df-vj      9.00 sec, wall time      0.07 sec
E1 = -57.98885992583267  Ecoul = 29.50735908388058  Exc = -4.752019240342653
cycle= 5 E= -13.619255843266  delta_E= -1.15e-06  |g|= 0.000501  |ddm|= 0.00414
    CPU time for cycle= 5    140.37 sec, wall time      1.22 sec
  HOMO = -0.253762075199769  LUMO = -0.040626876651974
  mo_energy =
[-7.00133203e-01 -5.21749004e-01 -4.32468011e-01 -3.67424269e-01
 -3.16560458e-01 -2.53762075e-01 -4.06268767e-02  1.87510103e-02
  4.75358370e-02  5.18296683e-02  1.09260967e-01  1.46721954e-01
  1.88518887e-01  1.99850495e-01  2.04636721e-01  2.18450063e-01
  2.80209757e-01  2.99297854e-01  3.13229864e-01  3.21915558e-01
  3.22034238e-01  3.48630301e-01  3.80425704e-01  4.52640461e-01
  4.61665889e-01  5.08455526e-01  5.38267687e-01  5.82733782e-01
  5.90810920e-01  6.33722330e-01  6.85724457e-01  6.86659722e-01
  7.15886308e-01  7.52373096e-01  7.60673208e-01  7.88487682e-01
  8.01415446e-01  8.13809213e-01  9.16984597e-01  9.24476372e-01
  9.43141787e-01  9.58756400e-01  9.61840598e-01  1.01530630e+00
  1.04962303e+00  1.10421572e+00  1.18311954e+00  1.28788486e+00
  1.38429099e+00  1.40022790e+00  1.42738354e+00  1.46996367e+00
  1.48623513e+00  1.53085917e+00  1.57845840e+00  1.62461917e+00
  1.63545266e+00  1.66340958e+00  1.69920309e+00  1.69986198e+00
  1.78365734e+00  1.78683970e+00  1.79247748e+00  1.79838919e+00
  1.81028228e+00  1.82728748e+00  1.89976749e+00  1.92854572e+00
  1.95068282e+00  1.96938283e+00  2.06024889e+00  2.06401496e+00
  2.07829050e+00  2.10530114e+00  2.20341609e+00  2.24665308e+00
  2.29237778e+00  2.30467154e+00  2.31519288e+00  2.31671703e+00
  2.35991322e+00  2.37026016e+00  2.38193541e+00  2.41647053e+00
  2.48802041e+00  2.50784129e+00  2.53503610e+00  2.62420533e+00
  2.66913011e+00  2.72176915e+00  2.72681809e+00  2.87767414e+00
  2.92608763e+00  2.96321182e+00  2.97238993e+00  3.02199645e+00
  3.05151320e+00  3.08990491e+00  3.30572545e+00  3.33608936e+00
  3.38342467e+00  3.43049586e+00  3.47981745e+00  3.51115304e+00
  3.53969606e+00  3.58655294e+00  3.60798140e+00  3.71158989e+00
  3.72596756e+00  3.72815672e+00  3.84143701e+00  4.10186329e+00
  4.15155354e+00  4.15217173e+00  4.74363209e+00  4.77058836e+00
  4.84895939e+00  4.87004988e+00  4.94411476e+00  4.99413252e+00
  5.08451607e+00  5.18198144e+00  5.21848292e+00  5.25152914e+00
  5.27401935e+00  5.28496545e+00  5.28614885e+00  5.32947193e+00
  5.32957208e+00  5.38296213e+00  5.40791023e+00  5.46743328e+00
  5.56164977e+00  5.58507171e+00  5.61459112e+00  5.66969322e+00
  5.70909893e+00  5.71080659e+00  5.75116095e+00  5.79940528e+00
  5.81121825e+00  5.88246596e+00  5.98629322e+00  6.00003032e+00
  6.05002306e+00  6.08145361e+00  6.12435905e+00  6.15634515e+00
  6.24398932e+00  6.28978251e+00  6.29703448e+00  6.30203408e+00
  6.30551586e+00  6.35426293e+00  6.36462812e+00  6.40933742e+00
  6.41496891e+00  6.44465970e+00  6.56666101e+00  6.78414593e+00
  6.84617097e+00  6.87424986e+00  6.90043908e+00  6.96920654e+00
  7.13151327e+00  7.27096291e+00  7.31305798e+00  7.37647024e+00
  7.38965556e+00  7.41387997e+00  7.47707374e+00  7.48307338e+00
  7.50343551e+00  7.54003815e+00  7.54268663e+00  7.56236869e+00
  7.59566668e+00  7.60903965e+00  7.68221451e+00  7.69336293e+00
  7.69936817e+00  7.73806387e+00  7.85102975e+00  7.91558205e+00
  7.99006319e+00  8.00315995e+00  8.07323109e+00  8.12611608e+00
  8.14539167e+00  8.22901563e+00  8.27801244e+00  8.31373174e+00
  8.33699231e+00  8.34417044e+00  8.43010581e+00  8.43241171e+00
  8.43893314e+00  8.45507630e+00  8.52864452e+00  8.63905374e+00
  8.70680305e+00  8.70962409e+00  8.93006762e+00  8.93411634e+00
  9.14291414e+00  9.15479570e+00  9.25046280e+00  9.35311407e+00
  9.68569940e+00  9.80561795e+00  9.81488913e+00  9.91746556e+00
  9.99637943e+00  1.00019288e+01  1.00781518e+01  1.02123045e+01
  1.02193745e+01  1.03139490e+01  1.06176301e+01  1.06460173e+01
  1.09275067e+01  1.09541919e+01  1.12724690e+01  1.18282766e+01
  1.23696390e+01  1.26416713e+01  1.96979422e+01  1.97050780e+01]
nelec by numeric integration = 11.999990800538352
    CPU time for vxc     36.73 sec, wall time      0.29 sec
    CPU time for df-vj      9.37 sec, wall time      0.08 sec
E1 = -57.98924720491181  Ecoul = 29.507846507769273  Exc = -4.752119453516791
cycle= 6 E= -13.6192559116306  delta_E= -6.84e-08  |g|= 3.3e-05  |ddm|= 0.000709
    CPU time for cycle= 6    103.98 sec, wall time      0.86 sec
  HOMO = -0.253767016351602  LUMO = -0.0406302676921292
  mo_energy =
[-7.00141874e-01 -5.21752479e-01 -4.32472958e-01 -3.67433043e-01
 -3.16565313e-01 -2.53767016e-01 -4.06302677e-02  1.87468385e-02
  4.75306042e-02  5.18247161e-02  1.09256534e-01  1.46716486e-01
  1.88513561e-01  1.99845103e-01  2.04630702e-01  2.18443888e-01
  2.80205292e-01  2.99292399e-01  3.13225447e-01  3.21912130e-01
  3.22029676e-01  3.48626555e-01  3.80421601e-01  4.52635227e-01
  4.61660485e-01  5.08450112e-01  5.38261752e-01  5.82728063e-01
  5.90805978e-01  6.33716519e-01  6.85719729e-01  6.86653764e-01
  7.15880754e-01  7.52367186e-01  7.60667121e-01  7.88481987e-01
  8.01410571e-01  8.13804182e-01  9.16978550e-01  9.24470130e-01
  9.43136039e-01  9.58750228e-01  9.61835386e-01  1.01530094e+00
  1.04961800e+00  1.10420892e+00  1.18311428e+00  1.28788068e+00
  1.38428592e+00  1.40022276e+00  1.42737693e+00  1.46996044e+00
  1.48623056e+00  1.53085395e+00  1.57845189e+00  1.62461448e+00
  1.63544676e+00  1.66340391e+00  1.69919763e+00  1.69985619e+00
  1.78365158e+00  1.78683510e+00  1.79247124e+00  1.79838420e+00
  1.81027689e+00  1.82728081e+00  1.89976304e+00  1.92854146e+00
  1.95067812e+00  1.96937798e+00  2.06024518e+00  2.06401003e+00
  2.07828520e+00  2.10529565e+00  2.20340982e+00  2.24664698e+00
  2.29237245e+00  2.30466778e+00  2.31518708e+00  2.31671153e+00
  2.35990657e+00  2.37025395e+00  2.38192980e+00  2.41646470e+00
  2.48801442e+00  2.50783500e+00  2.53502956e+00  2.62420015e+00
  2.66912424e+00  2.72176396e+00  2.72681270e+00  2.87766641e+00
  2.92608067e+00  2.96320609e+00  2.97238354e+00  3.02199094e+00
  3.05150738e+00  3.08989899e+00  3.30571926e+00  3.33608413e+00
  3.38341941e+00  3.43049001e+00  3.47981071e+00  3.51114884e+00
  3.53969116e+00  3.58654775e+00  3.60797551e+00  3.71158448e+00
  3.72596231e+00  3.72815078e+00  3.84143143e+00  4.10185796e+00
  4.15154704e+00  4.15216489e+00  4.74362207e+00  4.77057707e+00
  4.84895174e+00  4.87003973e+00  4.94410798e+00  4.99412650e+00
  5.08451248e+00  5.18197697e+00  5.21847638e+00  5.25152549e+00
  5.27401656e+00  5.28496278e+00  5.28614510e+00  5.32946907e+00
  5.32956821e+00  5.38295834e+00  5.40790754e+00  5.46743006e+00
  5.56164357e+00  5.58506705e+00  5.61458777e+00  5.66968623e+00
  5.70909550e+00  5.71080105e+00  5.75115540e+00  5.79939950e+00
  5.81121350e+00  5.88246111e+00  5.98628886e+00  6.00002520e+00
  6.05001776e+00  6.08144784e+00  6.12435215e+00  6.15633952e+00
  6.24398334e+00  6.28977612e+00  6.29702777e+00  6.30202871e+00
  6.30550992e+00  6.35425950e+00  6.36462217e+00  6.40933375e+00
  6.41496193e+00  6.44465356e+00  6.56665604e+00  6.78414099e+00
  6.84616364e+00  6.87424360e+00  6.90043419e+00  6.96920023e+00
  7.13150858e+00  7.27095693e+00  7.31305096e+00  7.37646349e+00
  7.38964884e+00  7.41387417e+00  7.47706615e+00  7.48306678e+00
  7.50342888e+00  7.54003286e+00  7.54268030e+00  7.56236172e+00
  7.59566016e+00  7.60903283e+00  7.68220765e+00  7.69335629e+00
  7.69936131e+00  7.73805722e+00  7.85102273e+00  7.91557576e+00
  7.99005749e+00  8.00315292e+00  8.07322491e+00  8.12610927e+00
  8.14538490e+00  8.22900978e+00  8.27800593e+00  8.31372602e+00
  8.33698687e+00  8.34416403e+00  8.43009899e+00  8.43240510e+00
  8.43892814e+00  8.45506866e+00  8.52863884e+00  8.63904720e+00
  8.70679665e+00  8.70961752e+00  8.93006147e+00  8.93411076e+00
  9.14290741e+00  9.15478873e+00  9.25045624e+00  9.35310702e+00
  9.68569245e+00  9.80561186e+00  9.81488418e+00  9.91745909e+00
  9.99637344e+00  1.00019221e+01  1.00781457e+01  1.02122985e+01
  1.02193698e+01  1.03139417e+01  1.06176230e+01  1.06460122e+01
  1.09275012e+01  1.09541868e+01  1.12724620e+01  1.18282695e+01
  1.23696339e+01  1.26416665e+01  1.96979420e+01  1.97050770e+01]
nelec by numeric integration = 11.999990800543566
    CPU time for vxc     38.43 sec, wall time      0.31 sec
    CPU time for df-vj      8.00 sec, wall time      0.06 sec
E1 = -57.98923152318615  Ecoul = 29.50782887341321  Exc = -4.75211750111617
cycle= 7 E= -13.6192559118603  delta_E= -2.3e-10  |g|= 4.38e-06  |ddm|= 4.81e-05
    CPU time for cycle= 7    124.97 sec, wall time      1.03 sec
  HOMO = -0.253768379663459  LUMO = -0.0406315514967695
  mo_energy =
[-7.00143435e-01 -5.21753789e-01 -4.32474179e-01 -3.67434525e-01
 -3.16566347e-01 -2.53768380e-01 -4.06315515e-02  1.87463551e-02
  4.75301217e-02  5.18243203e-02  1.09256199e-01  1.46716134e-01
  1.88513180e-01  1.99844366e-01  2.04630087e-01  2.18443394e-01
  2.80204492e-01  2.99291883e-01  3.13224912e-01  3.21911557e-01
  3.22029096e-01  3.48626074e-01  3.80420902e-01  4.52634763e-01
  4.61659444e-01  5.08449499e-01  5.38261317e-01  5.82727535e-01
  5.90805490e-01  6.33716110e-01  6.85719186e-01  6.86653212e-01
  7.15880278e-01  7.52366682e-01  7.60666466e-01  7.88481167e-01
  8.01410038e-01  8.13803637e-01  9.16978190e-01  9.24469454e-01
  9.43135148e-01  9.58749387e-01  9.61834763e-01  1.01530022e+00
  1.04961738e+00  1.10420820e+00  1.18311380e+00  1.28787939e+00
  1.38428529e+00  1.40022217e+00  1.42737614e+00  1.46995924e+00
  1.48622983e+00  1.53085338e+00  1.57845090e+00  1.62461334e+00
  1.63544580e+00  1.66340283e+00  1.69919664e+00  1.69985543e+00
  1.78365050e+00  1.78683438e+00  1.79247028e+00  1.79838333e+00
  1.81027633e+00  1.82728004e+00  1.89976220e+00  1.92854066e+00
  1.95067743e+00  1.96937718e+00  2.06024404e+00  2.06400929e+00
  2.07828431e+00  2.10529520e+00  2.20340902e+00  2.24664655e+00
  2.29237177e+00  2.30466684e+00  2.31518651e+00  2.31671083e+00
  2.35990592e+00  2.37025355e+00  2.38192925e+00  2.41646406e+00
  2.48801397e+00  2.50783453e+00  2.53502887e+00  2.62419955e+00
  2.66912368e+00  2.72176342e+00  2.72681212e+00  2.87766567e+00
  2.92607993e+00  2.96320531e+00  2.97238240e+00  3.02198980e+00
  3.05150659e+00  3.08989827e+00  3.30571839e+00  3.33608321e+00
  3.38341841e+00  3.43048903e+00  3.47980991e+00  3.51114779e+00
  3.53969042e+00  3.58654641e+00  3.60797478e+00  3.71158363e+00
  3.72596140e+00  3.72814946e+00  3.84143029e+00  4.10185721e+00
  4.15154635e+00  4.15216401e+00  4.74362045e+00  4.77057559e+00
  4.84895033e+00  4.87003833e+00  4.94410633e+00  4.99412511e+00
  5.08451067e+00  5.18197564e+00  5.21847491e+00  5.25152357e+00
  5.27401503e+00  5.28496133e+00  5.28614348e+00  5.32946766e+00
  5.32956661e+00  5.38295696e+00  5.40790602e+00  5.46742830e+00
  5.56164206e+00  5.58506583e+00  5.61458615e+00  5.66968455e+00
  5.70909380e+00  5.71080002e+00  5.75115451e+00  5.79939853e+00
  5.81121197e+00  5.88246007e+00  5.98628789e+00  6.00002440e+00
  6.05001714e+00  6.08144651e+00  6.12435078e+00  6.15633808e+00
  6.24398217e+00  6.28977485e+00  6.29702667e+00  6.30202775e+00
  6.30550839e+00  6.35425792e+00  6.36462117e+00  6.40933232e+00
  6.41496061e+00  6.44465265e+00  6.56665480e+00  6.78413953e+00
  6.84616235e+00  6.87424271e+00  6.90043241e+00  6.96919884e+00
  7.13150716e+00  7.27095556e+00  7.31305030e+00  7.37646251e+00
  7.38964777e+00  7.41387324e+00  7.47706460e+00  7.48306612e+00
  7.50342836e+00  7.54003212e+00  7.54267964e+00  7.56236131e+00
  7.59565973e+00  7.60903240e+00  7.68220698e+00  7.69335563e+00
  7.69936086e+00  7.73805671e+00  7.85102228e+00  7.91557511e+00
  7.99005667e+00  8.00315251e+00  8.07322436e+00  8.12610892e+00
  8.14538454e+00  8.22900893e+00  8.27800547e+00  8.31372505e+00
  8.33698583e+00  8.34416312e+00  8.43009809e+00  8.43240455e+00
  8.43892703e+00  8.45506672e+00  8.52863811e+00  8.63904663e+00
  8.70679467e+00  8.70961694e+00  8.93006046e+00  8.93410899e+00
  9.14290681e+00  9.15478768e+00  9.25045548e+00  9.35310625e+00
  9.68569176e+00  9.80561094e+00  9.81488304e+00  9.91745809e+00
  9.99637210e+00  1.00019211e+01  1.00781447e+01  1.02122974e+01
  1.02193687e+01  1.03139408e+01  1.06176219e+01  1.06460110e+01
  1.09275001e+01  1.09541854e+01  1.12724604e+01  1.18282683e+01
  1.23696326e+01  1.26416652e+01  1.96979390e+01  1.97050740e+01]
nelec by numeric integration = 11.999990800596466
    CPU time for vxc     37.47 sec, wall time      0.30 sec
    CPU time for df-vj      7.85 sec, wall time      0.06 sec
E1 = -57.98925175253453  Ecoul = 29.507852453037234  Exc = -4.752120851388621
Extra cycle  E= -13.6192559118571  delta_E= 3.19e-12  |g|= 5.33e-06  |ddm|= 1.77e-05
    CPU time for scf_cycle   1217.17 sec, wall time     10.22 sec
    CPU time for SCF   1217.17 sec, wall time     10.22 sec
converged SCF energy = -13.6192559118571
