#INFO: **** input file is /home/nkousuke/lustre/toBeSync/turboRVB/05turbo-genius-development/turbogenius_paper/04data/sanity_checks/03pyscf_HF_turbo_VMC_via_trexio/00open_boundary/results/Cr/pyscf-HF-workflow/run.py ****

from pyscf_wrapper import Pyscf_wrapper

# input variables
pyscf_chkfile="pyscf.chk"
structure_file="Cr.xyz"

# input variables
omp_num_threads=128
charge=0
spin=6
basis="ccecp-ccpvtz"
ecp="ccecp"
scf_method="HF"
dft_xc="NA"
solver_newton=False
MP2_flag=False
CCSD_flag=False
pyscf_output="out.pyscf"
twist_average=False
exp_to_discard=0.0
kpt=[0.0, 0.0, 0.0]
kpt_grid=[1, 1, 1]
smearing_method="fermi"
smearing_sigma=0.0

pyscf_calc=Pyscf_wrapper(
                        structure_file=structure_file,
                        chkfile=pyscf_chkfile,
                        )

pyscf_calc.run_pyscf(
                  omp_num_threads=omp_num_threads,
                  charge=charge,
                  spin=spin,
                  basis=basis,
                  ecp=ecp,
                  scf_method=scf_method,
                  dft_xc=dft_xc,
                  solver_newton=solver_newton,
                  MP2_flag=MP2_flag,
                  CCSD_flag=CCSD_flag,
                  pyscf_output=pyscf_output,
                  twist_average=twist_average,
                  exp_to_discard=exp_to_discard,
                  kpt=kpt,
                  kpt_grid=kpt_grid,
                  smearing_method=smearing_method,
                  smearing_sigma=smearing_sigma
                  )
                #INFO: ******************** input file end ********************


System: uname_result(system='Linux', node='spcc-200', release='5.4.0-66-generic', version='#74-Ubuntu SMP Wed Jan 27 22:54:38 UTC 2021', machine='x86_64', processor='x86_64')  Threads 128
Python 3.7.3 (default, Mar 27 2019, 22:11:17) 
[GCC 7.3.0]
numpy 1.20.1  scipy 1.7.3
Date: Mon Dec 19 18:03:30 2022
PySCF version 2.0.1
PySCF path  /home/nkousuke/application/anaconda3/lib/python3.7/site-packages/pyscf

[CONFIG] conf_file /home/nkousuke/.pyscf_conf.py
[INPUT] verbose = 5
[INPUT] max_memory = 507460.29296875 
[INPUT] num. atoms = 1
[INPUT] num. electrons = 14
[INPUT] charge = 0
[INPUT] spin (= nelec alpha-beta = 2S) = 6
[INPUT] symmetry False subgroup None
[INPUT] Mole.unit = A
[INPUT]  1 Cr     0.000000000000   0.000000000000   0.000000000000 AA    0.000000000000   0.000000000000   0.000000000000 Bohr
[INPUT] ---------------- BASIS SET ---------------- 
[INPUT] l, kappa, [nprim/nctr], expnt,             c_1 c_2 ...
[INPUT] Cr
[INPUT] 0    0    [13   /1   ]  73.977737         0.000864
                                37.684349         -0.011595
                                19.278723         0.090467
                                12.130763         -0.024837
                                7.453002          -0.330407
                                3.756296          -0.200598
                                2.084137          0.449766
                                0.993314          0.647575
                                0.483094          0.229025
                                0.225854          0.009217
                                0.115338          0.001132
                                0.052134          -0.000367
                                0.023679          9.2e-05
[INPUT] 0    0    [13   /1   ]  73.977737         -0.000183
                                37.684349         0.002704
                                19.278723         -0.02265
                                12.130763         0.007181
                                7.453002          0.087705
                                3.756296          0.047616
                                2.084137          -0.125672
                                0.993314          -0.244571
                                0.483094          -0.198419
                                0.225854          0.030889
                                0.115338          0.423935
                                0.052134          0.576941
                                0.023679          0.148323
[INPUT] 0    0    [13   /1   ]  73.977737         -0.000327
                                37.684349         0.005309
                                19.278723         -0.046905
                                12.130763         0.015411
                                7.453002          0.191697
                                3.756296          0.099759
                                2.084137          -0.338994
                                0.993314          -0.695806
                                0.483094          -0.007315
                                0.225854          1.118599
                                0.115338          0.717257
                                0.052134          -0.868565
                                0.023679          -0.467186
[INPUT] 0    0    [13   /1   ]  73.977737         -0.000698
                                37.684349         0.010207
                                19.278723         -0.091261
                                12.130763         0.052207
                                7.453002          0.342164
                                3.756296          0.174866
                                2.084137          -0.994258
                                0.993314          -1.190604
                                0.483094          2.271834
                                0.225854          1.003013
                                0.115338          -2.605235
                                0.052134          0.265158
                                0.023679          0.902286
[INPUT] 0    0    [1    /1   ]  0.023679             1
[INPUT] 1    0    [13   /1   ]  101.95124         8.8e-05
                                52.309865         -0.000747
                                27.142574         0.007135
                                15.066862         -0.014702
                                9.693669          -0.073353
                                4.98571           0.012007
                                2.761266          0.283117
                                1.417673          0.440786
                                0.728201          0.306775
                                0.378189          0.081804
                                0.189359          0.008839
                                0.072301          0.001022
                                0.037471          0.000325
[INPUT] 1    0    [13   /1   ]  101.95124         2.8e-05
                                52.309865         -8.5e-05
                                27.142574         -0.000751
                                15.066862         0.000844
                                9.693669          0.022656
                                4.98571           -0.012781
                                2.761266          -0.062386
                                1.417673          -0.143581
                                0.728201          -0.062281
                                0.378189          -0.054471
                                0.189359          0.377135
                                0.072301          0.471633
                                0.037471          0.311624
[INPUT] 1    0    [13   /1   ]  101.95124         -0.000137
                                52.309865         0.000932
                                27.142574         -0.006845
                                15.066862         0.019831
                                9.693669          0.043647
                                4.98571           -0.019289
                                2.761266          -0.281187
                                1.417673          -0.370298
                                0.728201          -0.199873
                                0.378189          1.028552
                                0.189359          0.423711
                                0.072301          -0.800926
                                0.037471          -0.14191
[INPUT] 1    0    [13   /1   ]  101.95124         2.7e-05
                                52.309865         0.00018
                                27.142574         -0.005742
                                15.066862         0.020419
                                9.693669          0.100527
                                4.98571           -0.100608
                                2.761266          -0.607746
                                1.417673          -0.601705
                                0.728201          1.450905
                                0.378189          0.672299
                                0.189359          -1.904823
                                0.072301          0.665814
                                0.037471          0.348522
[INPUT] 1    0    [1    /1   ]  0.037471             1
[INPUT] 2    0    [11   /1   ]  120.683729        -6e-06
                                42.646591         0.003111
                                21.154405         0.028641
                                9.708242          0.076222
                                4.61499           0.170595
                                2.243726          0.266908
                                1.086491          0.311039
                                0.5247            0.267312
                                0.255752          0.163336
                                0.121497          0.062782
                                0.054339          0.007872
[INPUT] 2    0    [11   /1   ]  120.683729        1.7e-05
                                42.646591         -0.003576
                                21.154405         -0.031476
                                9.708242          -0.087583
                                4.61499           -0.19574
                                2.243726          -0.270132
                                1.086491          -0.170034
                                0.5247            0.143412
                                0.255752          0.408687
                                0.121497          0.370257
                                0.054339          0.123112
[INPUT] 2    0    [11   /1   ]  120.683729        4e-05
                                42.646591         -0.005181
                                21.154405         -0.043393
                                9.708242          -0.127734
                                4.61499           -0.28207
                                2.243726          -0.28839
                                1.086491          0.168269
                                0.5247            0.673062
                                0.255752          0.099196
                                0.121497          -0.570612
                                0.054339          -0.297197
[INPUT] 2    0    [1    /1   ]  0.054339             1
[INPUT] 3    0    [1    /1   ]  0.55891              1
[INPUT] 3    0    [1    /1   ]  2.34529              1
[INPUT] 4    0    [1    /1   ]  1.422099             1

nuclear repulsion = 0
number of shells = 17
number of NR pGTOs = 405
number of NR cGTOs = 63
basis = ccecp-ccpvtz
ecp = ccecp
CPU time:         5.06


******** <class 'pyscf.scf.rohf.ROHF'> ********
method = ROHF-RHF
initial guess = minao
damping factor = 0
level_shift factor = 0
DIIS = <class 'pyscf.scf.diis.CDIIS'>
diis_start_cycle = 1
diis_space = 8
SCF conv_tol = 1e-09
SCF conv_tol_grad = None
SCF max_cycles = 200
direct_scf = True
direct_scf_tol = 1e-13
chkfile to save SCF result = pyscf.chk
max_memory 507460 MB (current use 106 MB)
num. doubly occ = 4  num. singly occ = 6
Set gradient conv threshold to 3.16228e-05
E1 = -148.60625081695625  Ecoul = 63.61354592920051
init E= -84.9927048877557
cond(S) = 163.54101879117434
    CPU time for initialize scf    222.57 sec, wall time      5.27 sec
  HOMO = -0.0658517872244685  LUMO = 0.0364923376497989
                  Roothaan           | alpha              | beta
  Highest 2-occ =  -2.26374741303446 |  -2.26374741303446 |  -2.26374741303446
  Lowest 0-occ =  0.0364923376497989 | 0.0364923376497997 | 0.0364923376497997
  1-occ =         -0.242718293201109 | -0.242718293201109 | -0.242718293201109
  1-occ =         -0.0658517872245019 | -0.0658517872245022 | -0.0658517872245022
  1-occ =         -0.0658517872244974 | -0.0658517872244986 | -0.0658517872244986
  1-occ =         -0.0658517872244741 | -0.0658517872244736 | -0.0658517872244736
  1-occ =         -0.065851787224473 | -0.0658517872244732 | -0.0658517872244732
  1-occ =         -0.0658517872244685 | -0.0658517872244723 | -0.0658517872244723
  Roothaan mo_energy =
[-3.56518656 -2.26374741 -2.26374741 -2.26374741 -0.24271829 -0.06585179
 -0.06585179 -0.06585179 -0.06585179 -0.06585179  0.03649234  0.03649234
  0.03649234  0.13978069  0.1724458   0.1724458   0.1724458   0.1724458
  0.1724458   0.20578157  0.20578157  0.20578157  0.67491607  0.70976127
  0.70976127  0.70976127  0.70976127  0.70976127  0.82185469  0.82185469
  0.82185469  1.78828924  1.78828924  1.78828924  1.78828924  1.78828924
  1.78828924  1.78828924  2.46608515  2.96776028  2.96776028  2.96776028
  2.96776028  2.96776028  3.23368389  3.23368389  3.23368389  6.14153188
  6.14153188  6.14153188  6.14153188  6.14153188  6.14153188  6.14153188
  6.14153188  6.14153188  6.77602129  6.77602129  6.77602129  6.77602129
  6.77602129  6.77602129  6.77602129]
E1 = -149.02034841463382  Ecoul = 63.01642565378205
cycle= 1 E= -86.0039227608518  delta_E= -1.01  |g|= 0.244  |ddm|= 1.89
    CPU time for cycle= 1     23.47 sec, wall time      0.19 sec
  HOMO = -0.0895303240538085  LUMO = 0.0526701816150556
                  Roothaan           | alpha              | beta
  Highest 2-occ =     -2.23504827696 |  -2.44009080376829 |  -2.03000575015171
  Lowest 0-occ =  0.0526701816150556 | 0.0300005332334926 | 0.0753398299966182
  1-occ =         -0.102171915544489 |   -0.2616527896605 | 0.0626557571235155
  1-occ =         -0.0895303240538307 | -0.452698520846303 |  0.347123413335913
  1-occ =         -0.0895303240538269 | -0.452698520846299 |  0.347123413335917
  1-occ =         -0.0895303240538102 | -0.452698520846282 |  0.347123413335968
  1-occ =         -0.0895303240538102 | -0.452698520846283 |  0.347123413335968
  1-occ =         -0.0895303240538085 | -0.452698520846283 |   0.34712341333597
  Roothaan mo_energy =
[-3.53574967 -2.23504828 -2.23504828 -2.23504828 -0.10217192 -0.08953032
 -0.08953032 -0.08953032 -0.08953032 -0.08953032  0.05267018  0.05267018
  0.05267018  0.15575116  0.1895937   0.1895937   0.1895937   0.1895937
  0.1895937   0.22797766  0.22797766  0.22797766  0.70147744  0.74817277
  0.74817277  0.74817277  0.74817277  0.74817277  0.8572185   0.8572185
  0.8572185   1.83510683  1.83510683  1.83510683  1.83510683  1.83510683
  1.83510683  1.83510683  2.49624287  2.98808959  2.98808959  2.98808959
  2.98808959  2.98808959  3.26470548  3.26470548  3.26470548  6.2008873
  6.2008873   6.2008873   6.2008873   6.2008873   6.2008873   6.2008873
  6.2008873   6.2008873   6.80962643  6.80962643  6.80962643  6.80962643
  6.80962643  6.80962643  6.80962643]
E1 = -152.7679609868226  Ecoul = 66.76455931480501
cycle= 2 E= -86.0034016720176  delta_E= 0.000521  |g|= 0.454  |ddm|= 0.536
    CPU time for cycle= 2     20.99 sec, wall time      0.16 sec
  HOMO = 0.00827152617816083  LUMO = 0.0571536286671568
                  Roothaan           | alpha              | beta
  Highest 2-occ =  -2.12142344051441 |  -2.14663620233958 |    -1.670471400746
  Lowest 0-occ =  0.0571536286671568 | 0.0491918832454718 | 0.0809610817563851
  1-occ =         -0.082940378810743 |  -0.20286882396911 |  0.099639330422669
  1-occ =         0.00827152617813224 | -0.251356044043492 |  0.611294175569679
  1-occ =         0.00827152617813417 | -0.251356044043491 |  0.611294175569682
  1-occ =         0.00827152617815802 | -0.251356044043484 |  0.611294175569747
  1-occ =         0.00827152617815896 | -0.251356044043483 |  0.611294175569752
  1-occ =         0.00827152617816083 | -0.251356044043486 |   0.61129417556975
  Roothaan mo_energy =
[-3.41435064 -2.12142344 -2.12142344 -2.12142344 -0.08294038  0.00827153
  0.00827153  0.00827153  0.00827153  0.00827153  0.05715363  0.05715363
  0.05715363  0.16104464  0.18597975  0.18597975  0.18597975  0.18597975
  0.18597975  0.23914466  0.23914466  0.23914466  0.72140312  0.77220001
  0.77220001  0.77220001  0.77220001  0.77220001  0.88612774  0.88612774
  0.88612774  1.87985527  1.87985527  1.87985527  1.87985527  1.87985527
  1.87985527  1.87985527  2.56305314  3.08462449  3.08462449  3.08462449
  3.08462449  3.08462449  3.34871027  3.34871027  3.34871027  6.27991204
  6.27991204  6.27991204  6.27991204  6.27991204  6.27991204  6.27991204
  6.27991204  6.27991204  6.92358567  6.92358567  6.92358567  6.92358567
  6.92358567  6.92358567  6.92358567]
E1 = -151.39105460480704  Ecoul = 65.34608060839574
cycle= 3 E= -86.0449739964113  delta_E= -0.0416  |g|= 0.137  |ddm|= 0.236
    CPU time for cycle= 3     20.97 sec, wall time      0.16 sec
  HOMO = 0.053086701247328  LUMO = 0.0592050664599094
                  Roothaan           | alpha              | beta
  Highest 2-occ =   -2.0679449025244 |  -2.25720276549837 |  -1.80067778377307
  Lowest 0-occ =  0.0592050664599094 | 0.0437360654712208 |  0.077301857866955
  1-occ =         -0.075014958923813 | -0.220509262977931 | 0.0760269160656653
  1-occ =         0.0530867012472978 | -0.335566211323595 |  0.507712071291044
  1-occ =         0.0530867012472997 | -0.335566211323594 |  0.507712071291043
  1-occ =          0.053086701247323 | -0.335566211323593 |  0.507712071291112
  1-occ =          0.053086701247324 | -0.335566211323591 |  0.507712071291118
  1-occ =          0.053086701247328 | -0.335566211323594 |  0.507712071291114
  Roothaan mo_energy =
[-3.35595974 -2.0679449  -2.0679449  -2.0679449  -0.07501496  0.0530867
  0.0530867   0.0530867   0.0530867   0.0530867   0.05920507  0.05920507
  0.05920507  0.16891614  0.1801849   0.1801849   0.1801849   0.1801849
  0.1801849   0.24656093  0.24656093  0.24656093  0.73528886  0.78453052
  0.78453052  0.78453052  0.78453052  0.78453052  0.90450125  0.90450125
  0.90450125  1.90644386  1.90644386  1.90644386  1.90644386  1.90644386
  1.90644386  1.90644386  2.59642428  3.12562669  3.12562669  3.12562669
  3.12562669  3.12562669  3.38923494  3.38923494  3.38923494  6.32364688
  6.32364688  6.32364688  6.32364688  6.32364688  6.32364688  6.32364688
  6.32364688  6.32364688  6.97523     6.97523     6.97523     6.97523
  6.97523     6.97523     6.97523   ]
E1 = -151.07917261984517  Ecoul = 65.03179097302515
cycle= 4 E= -86.04738164682  delta_E= -0.00241  |g|= 0.0345  |ddm|= 0.0761
    CPU time for cycle= 4     24.06 sec, wall time      0.19 sec
  HOMO = 0.0485596142016724  LUMO = 0.0581025053650817
                  Roothaan           | alpha              | beta
  Highest 2-occ =  -2.07177148685533 |  -2.28207400667917 |  -1.82672392481304
  Lowest 0-occ =  0.0581025053650817 | 0.0414036474385138 | 0.0763923440537139
  1-occ =         -0.0785241283575129 | -0.221778431006982 | 0.0702313296569943
  1-occ =         0.0485596142016383 | -0.356346677505997 |  0.474885806057733
  1-occ =         0.0485596142016428 | -0.356346677505996 |  0.474885806057739
  1-occ =         0.0485596142016682 | -0.356346677505997 |  0.474885806057789
  1-occ =          0.048559614201672 | -0.356346677505995 |  0.474885806057778
  1-occ =         0.0485596142016724 | -0.356346677505998 |  0.474885806057798
  Roothaan mo_energy =
[-3.35937155 -2.07177149 -2.07177149 -2.07177149 -0.07852413  0.04855961
  0.04855961  0.04855961  0.04855961  0.04855961  0.05810251  0.05810251
  0.05810251  0.16984017  0.180156    0.180156    0.180156    0.180156
  0.180156    0.24486941  0.24486941  0.24486941  0.73378602  0.78105661
  0.78105661  0.78105661  0.78105661  0.78105661  0.90120066  0.90120066
  0.90120066  1.90146431  1.90146431  1.90146431  1.90146431  1.90146431
  1.90146431  1.90146431  2.59335869  3.12173666  3.12173666  3.12173666
  3.12173666  3.12173666  3.38561922  3.38561922  3.38561922  6.31823723
  6.31823723  6.31823723  6.31823723  6.31823723  6.31823723  6.31823723
  6.31823723  6.31823723  6.97083261  6.97083261  6.97083261  6.97083261
  6.97083261  6.97083261  6.97083261]
E1 = -150.50515589301796  Ecoul = 64.45975772862789
cycle= 5 E= -86.0453981643901  delta_E= 0.00198  |g|= 0.0496  |ddm|= 0.249
    CPU time for cycle= 5     16.38 sec, wall time      0.13 sec
  HOMO = 0.0471022389867314  LUMO = 0.0577186129147717
                  Roothaan           | alpha              | beta
  Highest 2-occ =  -2.07307538414063 |  -2.32690502602582 |  -1.87987475079706
  Lowest 0-occ =  0.0577186129147717 | 0.0368909341322629 | 0.0745707195614319
  1-occ =         -0.079414810009816 | -0.233085285142634 | 0.0610184433001686
  1-occ =         0.0471022389867021 | -0.389824571188025 |  0.437898646493597
  1-occ =          0.047102238986703 | -0.389824571188018 |  0.437898646493602
  1-occ =         0.0471022389867286 | -0.389824571188009 |  0.437898646493663
  1-occ =          0.047102238986731 | -0.389824571188017 |  0.437898646493662
  1-occ =         0.0471022389867314 | -0.389824571188007 |  0.437898646493664
  Roothaan mo_energy =
[-3.36064238 -2.07307538 -2.07307538 -2.07307538 -0.07941481  0.04710224
  0.04710224  0.04710224  0.04710224  0.04710224  0.05771861  0.05771861
  0.05771861  0.16931777  0.18088293  0.18088293  0.18088293  0.18088293
  0.18088293  0.24425037  0.24425037  0.24425037  0.732991    0.77926276
  0.77926276  0.77926276  0.77926276  0.77926276  0.9001963   0.9001963
  0.9001963   1.89979995  1.89979995  1.89979995  1.89979995  1.89979995
  1.89979995  1.89979995  2.59219116  3.12046027  3.12046027  3.12046027
  3.12046027  3.12046027  3.38435922  3.38435922  3.38435922  6.31644216
  6.31644216  6.31644216  6.31644216  6.31644216  6.31644216  6.31644216
  6.31644216  6.31644216  6.969415    6.969415    6.969415    6.969415
  6.969415    6.969415    6.969415  ]
E1 = -150.87137378665156  Ecoul = 64.8228972231164
cycle= 6 E= -86.0484765635352  delta_E= -0.00308  |g|= 0.00111  |ddm|= 0.153
    CPU time for cycle= 6     24.05 sec, wall time      0.19 sec
  HOMO = 0.0482156379414606  LUMO = 0.0578429706461305
                  Roothaan           | alpha              | beta
  Highest 2-occ =  -2.07207897282261 |   -2.2984380010154 |  -1.84599618557297
  Lowest 0-occ =  0.0578429706461305 | 0.0397835701759487 | 0.0758509318921228
  1-occ =         -0.0790986612387442 | -0.225602405567962 | 0.0671347914684454
  1-occ =         0.0482156379414283 | -0.369450552294693 |  0.465588102845886
  1-occ =         0.0482156379414303 | -0.369450552294693 |  0.465588102845887
  1-occ =         0.0482156379414586 | -0.369450552294694 |   0.46558810284595
  1-occ =         0.0482156379414593 | -0.369450552294699 |  0.465588102845949
  1-occ =         0.0482156379414606 | -0.369450552294699 |  0.465588102845948
  Roothaan mo_energy =
[-3.35956008 -2.07207897 -2.07207897 -2.07207897 -0.07909866  0.04821564
  0.04821564  0.04821564  0.04821564  0.04821564  0.05784297  0.05784297
  0.05784297  0.16949263  0.18066687  0.18066687  0.18066687  0.18066687
  0.18066687  0.2444893   0.2444893   0.2444893   0.73339191  0.77973564
  0.77973564  0.77973564  0.77973564  0.77973564  0.9006772   0.9006772
  0.9006772   1.90045354  1.90045354  1.90045354  1.90045354  1.90045354
  1.90045354  1.90045354  2.59291295  3.12131724  3.12131724  3.12131724
  3.12131724  3.12131724  3.38518749  3.38518749  3.38518749  6.31731474
  6.31731474  6.31731474  6.31731474  6.31731474  6.31731474  6.31731474
  6.31731474  6.31731474  6.97042741  6.97042741  6.97042741  6.97042741
  6.97042741  6.97042741  6.97042741]
E1 = -150.8690880942292  Ecoul = 64.82061000859565
cycle= 7 E= -86.0484780856335  delta_E= -1.52e-06  |g|= 0.000307  |ddm|= 0.00414
    CPU time for cycle= 7     24.58 sec, wall time      0.19 sec
  HOMO = 0.0480413609972698  LUMO = 0.0578091528338844
                  Roothaan           | alpha              | beta
  Highest 2-occ =  -2.07224012537856 |  -2.29862031690944 |  -1.84618236780857
  Lowest 0-occ =  0.0578091528338844 | 0.0397613123306315 | 0.0758451325807871
  1-occ =         -0.0791917183930843 |   -0.2255352010626 | 0.0670915514266219
  1-occ =         0.0480413609972348 | -0.369627969990805 |  0.465472064274109
  1-occ =         0.0480413609972362 | -0.369627969990796 |  0.465472064274111
  1-occ =         0.0480413609972665 | -0.369627969990801 |  0.465472064274188
  1-occ =          0.048041360997268 | -0.369627969990767 |  0.465472064274151
  1-occ =         0.0480413609972698 | -0.369627969990803 |  0.465472064274186
  Roothaan mo_energy =
[-3.35971886 -2.07224013 -2.07224013 -2.07224013 -0.07919172  0.04804136
  0.04804136  0.04804136  0.04804136  0.04804136  0.05780915  0.05780915
  0.05780915  0.16951043  0.1806654   0.1806654   0.1806654   0.1806654
  0.1806654   0.24444145  0.24444145  0.24444145  0.7333358   0.77964803
  0.77964803  0.77964803  0.77964803  0.77964803  0.90058467  0.90058467
  0.90058467  1.90031643  1.90031643  1.90031643  1.90031643  1.90031643
  1.90031643  1.90031643  2.59279986  3.12117932  3.12117932  3.12117932
  3.12117932  3.12117932  3.38505203  3.38505203  3.38505203  6.31715942
  6.31715942  6.31715942  6.31715942  6.31715942  6.31715942  6.31715942
  6.31715942  6.31715942  6.97027002  6.97027002  6.97027002  6.97027002
  6.97027002  6.97027002  6.97027002]
E1 = -150.87115686406  Ecoul = 64.82267872757691
cycle= 8 E= -86.0484781364831  delta_E= -5.08e-08  |g|= 3.8e-05  |ddm|= 0.000435
    CPU time for cycle= 8     32.77 sec, wall time      0.26 sec
  HOMO = 0.048043211762321  LUMO = 0.0578079612364308
                  Roothaan           | alpha              | beta
  Highest 2-occ =  -2.07223804510217 |   -2.2984595248041 |  -1.84598471559786
  Lowest 0-occ =  0.0578079612364308 | 0.0397683988464566 |  0.075848521515618
  1-occ =         -0.0791955683071154 | -0.225498477063952 | 0.0671113352620571
  1-occ =          0.048043211761799 | -0.369513967806778 |  0.465623758415593
  1-occ =         0.0480432117622917 | -0.369513967828027 |  0.465623758435184
  1-occ =         0.0480432117622945 | -0.369513967827969 |  0.465623758435125
  1-occ =         0.0480432117623198 | -0.369513967827779 |  0.465623758434988
  1-occ =          0.048043211762321 | -0.369513967827954 |  0.465623758435156
  Roothaan mo_energy =
[-3.35971612 -2.07223805 -2.07223805 -2.07223805 -0.07919557  0.04804321
  0.04804321  0.04804321  0.04804321  0.04804321  0.05780796  0.05780796
  0.05780796  0.16950903  0.18066886  0.18066886  0.18066886  0.18066886
  0.18066886  0.24443961  0.24443961  0.24443961  0.73333685  0.77963909
  0.77963909  0.77963909  0.77963909  0.77963909  0.90058274  0.90058274
  0.90058274  1.90031364  1.90031364  1.90031364  1.90031364  1.90031364
  1.90031364  1.90031364  2.59279959  3.12117988  3.12117988  3.12117988
  3.12117988  3.12117988  3.38505201  3.38505201  3.38505201  6.31715947
  6.31715947  6.31715947  6.31715947  6.31715947  6.31715947  6.31715947
  6.31715947  6.31715947  6.97027222  6.97027222  6.97027222  6.97027222
  6.97027222  6.97027222  6.97027222]
E1 = -150.87096462776194  Ecoul = 64.82248649089483
cycle= 9 E= -86.0484781368671  delta_E= -3.84e-10  |g|= 4.94e-06  |ddm|= 4.68e-05
    CPU time for cycle= 9     20.97 sec, wall time      0.16 sec
  HOMO = 0.0480422661376423  LUMO = 0.0578080353125909
                  Roothaan           | alpha              | beta
  Highest 2-occ =  -2.07223869021615 |  -2.29847447779728 |  -1.84600290263261
  Lowest 0-occ =  0.0578080353125909 |  0.039767816051443 | 0.0758482445312667
  1-occ =         -0.0791955007377335 | -0.225500577143894 | 0.0671096374664862
  1-occ =         0.0480422658885451 | -0.369525023390089 |  0.465607708018959
  1-occ =         0.0480422661342009 | -0.369525033375432 |  0.465607717254183
  1-occ =         0.0480422661352869 | -0.369525033452512 |  0.465607717324069
  1-occ =         0.0480422661358576 | -0.369525033527053 |  0.465607717391006
  1-occ =         0.0480422661376423 | -0.369525033525169 |  0.465607717392113
  Roothaan mo_energy =
[-3.35971688 -2.07223869 -2.07223869 -2.07223869 -0.0791955   0.04804227
  0.04804227  0.04804227  0.04804227  0.04804227  0.05780804  0.05780804
  0.05780804  0.16950892  0.18066876  0.18066876  0.18066876  0.18066876
  0.18066876  0.24443959  0.24443959  0.24443959  0.73333679  0.77963966
  0.77963966  0.77963966  0.77963966  0.77963966  0.90058261  0.90058261
  0.90058261  1.90031348  1.90031348  1.90031348  1.90031348  1.90031348
  1.90031348  1.90031348  2.5927993   3.12117943  3.12117943  3.12117943
  3.12117943  3.12117943  3.38505163  3.38505163  3.38505163  6.31715898
  6.31715898  6.31715898  6.31715898  6.31715898  6.31715898  6.31715898
  6.31715898  6.31715898  6.97027154  6.97027154  6.97027154  6.97027154
  6.97027154  6.97027154  6.97027154]
E1 = -150.87086741068802  Ecoul = 64.82238927937499
Extra cycle  E= -86.048478131313  delta_E= 5.55e-09  |g|= 4.04e-05  |ddm|= 0.00035
    CPU time for scf_cycle    457.92 sec, wall time      7.11 sec
    CPU time for SCF    457.92 sec, wall time      7.11 sec
converged SCF energy = -86.048478131313
