#INFO: **** input file is /home/nkousuke/lustre/toBeSync/turboRVB/05turbo-genius-development/turbogenius_paper/04data/sanity_checks/03pyscf_HF_turbo_VMC_via_trexio/00open_boundary/results/SiO/pyscf-HF-workflow/run.py ****

from pyscf_wrapper import Pyscf_wrapper

# input variables
pyscf_chkfile="pyscf.chk"
structure_file="SiO.xyz"

# input variables
omp_num_threads=128
charge=0
spin=0
basis="ccecp-ccpvqz"
ecp="ccecp"
scf_method="HF"
dft_xc="NA"
solver_newton=False
MP2_flag=False
CCSD_flag=False
pyscf_output="out.pyscf"
twist_average=False
exp_to_discard=0.0
kpt=[0.0, 0.0, 0.0]
kpt_grid=[1, 1, 1]
smearing_method="fermi"
smearing_sigma=0.0

pyscf_calc=Pyscf_wrapper(
                        structure_file=structure_file,
                        chkfile=pyscf_chkfile,
                        )

pyscf_calc.run_pyscf(
                  omp_num_threads=omp_num_threads,
                  charge=charge,
                  spin=spin,
                  basis=basis,
                  ecp=ecp,
                  scf_method=scf_method,
                  dft_xc=dft_xc,
                  solver_newton=solver_newton,
                  MP2_flag=MP2_flag,
                  CCSD_flag=CCSD_flag,
                  pyscf_output=pyscf_output,
                  twist_average=twist_average,
                  exp_to_discard=exp_to_discard,
                  kpt=kpt,
                  kpt_grid=kpt_grid,
                  smearing_method=smearing_method,
                  smearing_sigma=smearing_sigma
                  )
                #INFO: ******************** input file end ********************


System: uname_result(system='Linux', node='spcc-200', release='5.4.0-66-generic', version='#74-Ubuntu SMP Wed Jan 27 22:54:38 UTC 2021', machine='x86_64', processor='x86_64')  Threads 128
Python 3.7.3 (default, Mar 27 2019, 22:11:17) 
[GCC 7.3.0]
numpy 1.20.1  scipy 1.7.3
Date: Mon Dec 19 18:07:07 2022
PySCF version 2.0.1
PySCF path  /home/nkousuke/application/anaconda3/lib/python3.7/site-packages/pyscf

[CONFIG] conf_file /home/nkousuke/.pyscf_conf.py
[INPUT] verbose = 5
[INPUT] max_memory = 507528.5625 
[INPUT] num. atoms = 2
[INPUT] num. electrons = 10
[INPUT] charge = 0
[INPUT] spin (= nelec alpha-beta = 2S) = 0
[INPUT] symmetry False subgroup None
[INPUT] Mole.unit = A
[INPUT]  1 Si     0.000000000000   0.000000000000   0.549090000000 AA    0.000000000000   0.000000000000   1.037629717737 Bohr
[INPUT]  2 O      0.000000000000   0.000000000000  -0.960910000000 AA    0.000000000000   0.000000000000  -1.815856730356 Bohr
[INPUT] ---------------- BASIS SET ---------------- 
[INPUT] l, kappa, [nprim/nctr], expnt,             c_1 c_2 ...
[INPUT] Si
[INPUT] 0    0    [10   /1   ]  9.998274          0.002894
                                5.517644          -0.014523
                                3.044965          0.077634
                                1.680393          -0.224022
                                0.927341          -0.14908
                                0.511762          0.085944
                                0.282421          0.355394
                                0.155857          0.445219
                                0.086011          0.26723
                                0.047466          0.060787
[INPUT] 0    0    [1    /1   ]  0.488504             1
[INPUT] 0    0    [1    /1   ]  0.199457             1
[INPUT] 0    0    [1    /1   ]  0.081439             1
[INPUT] 1    0    [10   /1   ]  5.027868          -0.003242
                                2.867751          0.010649
                                1.635683          -0.049761
                                0.932947          -1.7e-05
                                0.532126          0.10606
                                0.303509          0.236202
                                0.173113          0.310665
                                0.098739          0.294696
                                0.056318          0.153898
                                0.032122          0.042337
[INPUT] 1    0    [1    /1   ]  1.22579              1
[INPUT] 1    0    [1    /1   ]  0.501364             1
[INPUT] 1    0    [1    /1   ]  0.205064             1
[INPUT] 2    0    [1    /1   ]  0.997003             1
[INPUT] 2    0    [1    /1   ]  0.365942             1
[INPUT] 2    0    [1    /1   ]  0.134316             1
[INPUT] 3    0    [1    /1   ]  0.549116             1
[INPUT] 3    0    [1    /1   ]  0.214998             1
[INPUT] 4    0    [1    /1   ]  0.459547             1
[INPUT] O
[INPUT] 0    0    [9    /1   ]  54.775216         -0.0012444
                                25.616801         0.010733
                                11.980245         0.0018889
                                6.992317          -0.1742537
                                2.620277          0.0017622
                                1.225429          0.3161846
                                0.577797          0.4512023
                                0.268022          0.3121534
                                0.125346          0.0511167
[INPUT] 0    0    [1    /1   ]  1.351771             1
[INPUT] 0    0    [1    /1   ]  0.843157             1
[INPUT] 0    0    [1    /1   ]  0.22438              1
[INPUT] 1    0    [9    /1   ]  22.217266         0.0104866
                                10.74755          0.0366435
                                5.315785          0.0803674
                                2.660761          0.162701
                                1.331816          0.2377791
                                0.678626          0.2811422
                                0.333673          0.2643189
                                0.167017          0.1466014
                                0.083598          0.0458145
[INPUT] 1    0    [1    /1   ]  1.106737             1
[INPUT] 1    0    [1    /1   ]  0.452364             1
[INPUT] 1    0    [1    /1   ]  0.148562             1
[INPUT] 2    0    [1    /1   ]  4.008867             1
[INPUT] 2    0    [1    /1   ]  1.344331             1
[INPUT] 2    0    [1    /1   ]  0.455711             1
[INPUT] 3    0    [1    /1   ]  2.763115             1
[INPUT] 3    0    [1    /1   ]  0.876289             1
[INPUT] 4    0    [1    /1   ]  1.759081             1

nuclear repulsion = 8.41076361727152
number of shells = 28
number of NR pGTOs = 176
number of NR cGTOs = 108
basis = ccecp-ccpvqz
ecp = ccecp
CPU time:         4.64


******** <class 'pyscf.scf.hf.RHF'> ********
method = RHF
initial guess = minao
damping factor = 0
level_shift factor = 0
DIIS = <class 'pyscf.scf.diis.CDIIS'>
diis_start_cycle = 1
diis_space = 8
SCF conv_tol = 1e-09
SCF conv_tol_grad = None
SCF max_cycles = 200
direct_scf = True
direct_scf_tol = 1e-13
chkfile to save SCF result = pyscf.chk
max_memory 507528 MB (current use 106 MB)
Set gradient conv threshold to 3.16228e-05
E1 = -47.82605467560079  E_coul = 20.3040264770445
init E= -19.1112645812848
cond(S) = 8515.529533169502
    CPU time for initialize scf    112.12 sec, wall time      1.16 sec
  HOMO = -0.358251980044793  LUMO = -0.0323617886036784
  mo_energy =
[-1.59942877e+00 -6.89276336e-01 -5.52551712e-01 -5.52551712e-01
 -3.58251980e-01 -3.23617886e-02 -3.23617886e-02  8.77816957e-02
  2.51640479e-01  2.92234053e-01  3.01764507e-01  3.01764507e-01
  3.04208008e-01  3.04208008e-01  3.85477991e-01  3.85477991e-01
  4.37324321e-01  4.98588976e-01  4.98588976e-01  5.80672211e-01
  7.65870974e-01  7.65870974e-01  8.00798021e-01  8.00798021e-01
  8.79743123e-01  9.43839829e-01  9.43839829e-01  9.62817262e-01
  9.62817262e-01  9.81785402e-01  9.81785402e-01  1.11669622e+00
  1.20733611e+00  1.36246219e+00  1.36280181e+00  1.36280181e+00
  1.38918732e+00  1.38918732e+00  1.51527161e+00  1.69349761e+00
  1.69349761e+00  1.90659995e+00  2.18457380e+00  2.18457380e+00
  2.19271521e+00  2.19271521e+00  2.21535999e+00  2.21535999e+00
  2.24284139e+00  2.24284139e+00  2.29112004e+00  2.29112004e+00
  2.37277184e+00  2.37576239e+00  2.37576239e+00  2.40116344e+00
  2.40116344e+00  2.51985091e+00  2.53705543e+00  2.53705543e+00
  2.68461090e+00  2.68461090e+00  3.03648526e+00  3.12532867e+00
  3.12532867e+00  3.29046665e+00  3.47923905e+00  3.47923905e+00
  3.89449944e+00  3.89449944e+00  4.29830143e+00  4.31050903e+00
  4.31050903e+00  4.36557383e+00  4.36557383e+00  4.70043294e+00
  4.70043294e+00  4.84497658e+00  5.14703965e+00  5.37278472e+00
  5.37278472e+00  6.56058628e+00  7.27945604e+00  7.27945604e+00
  8.15512003e+00  8.74708148e+00  8.74708148e+00  8.76263926e+00
  8.76263926e+00  8.85966678e+00  8.85966678e+00  8.98771020e+00
  8.98771020e+00  9.04606481e+00  1.01677214e+01  1.16569236e+01
  1.16569236e+01  1.18716080e+01  1.18716080e+01  1.23387472e+01
  1.23387472e+01  1.23743149e+01  1.29304302e+01  1.29304302e+01
  1.31366142e+01  1.31366142e+01  1.33802272e+01  3.25903679e+01]
E1 = -50.9066431608259  E_coul = 23.096853675247345
cycle= 1 E= -19.399025868307  delta_E= -0.288  |g|=  0.8  |ddm|= 1.79
    CPU time for cycle= 1     35.45 sec, wall time      0.29 sec
  HOMO = -0.296700206829181  LUMO = 0.0253176179379174
  mo_energy =
[-1.05080745e+00 -5.51890483e-01 -2.99879028e-01 -2.96700207e-01
 -2.96700207e-01  2.53176179e-02  2.53176179e-02  1.24893597e-01
  2.12718631e-01  2.75370602e-01  2.75370602e-01  2.80186892e-01
  2.80186892e-01  3.51087379e-01  4.12966013e-01  4.12966013e-01
  5.08650715e-01  6.42912332e-01  6.53403466e-01  6.53403466e-01
  7.52569554e-01  7.52569554e-01  7.68274612e-01  7.68274612e-01
  8.80691523e-01  9.06320970e-01  9.06320970e-01  9.43565771e-01
  9.43565771e-01  1.00257667e+00  1.00257667e+00  1.27148810e+00
  1.31880881e+00  1.31880881e+00  1.34467896e+00  1.39214003e+00
  1.60590998e+00  1.61401380e+00  1.61401380e+00  1.94060370e+00
  1.94060370e+00  2.05117749e+00  2.13718892e+00  2.13718892e+00
  2.15004560e+00  2.15004560e+00  2.21705892e+00  2.21705892e+00
  2.21942554e+00  2.21942554e+00  2.32988821e+00  2.32988821e+00
  2.35354880e+00  2.41610492e+00  2.41610492e+00  2.51315295e+00
  2.51315295e+00  2.55038216e+00  2.55038216e+00  2.61616192e+00
  2.61616192e+00  2.63210580e+00  3.19139479e+00  3.21466553e+00
  3.21466553e+00  3.52473766e+00  3.82840358e+00  3.82840358e+00
  4.23946547e+00  4.23946547e+00  4.65504292e+00  4.65504292e+00
  4.73259897e+00  4.78246108e+00  4.78246108e+00  5.04911617e+00
  5.04911617e+00  5.13114559e+00  5.43051131e+00  5.46300742e+00
  5.46300742e+00  6.84395102e+00  7.91370668e+00  7.91370668e+00
  8.77719210e+00  9.24997769e+00  9.24997769e+00  9.26656398e+00
  9.26656398e+00  9.36208447e+00  9.36208447e+00  9.48988715e+00
  9.48988715e+00  9.53745567e+00  1.01643305e+01  1.22972085e+01
  1.22972085e+01  1.25122028e+01  1.25122028e+01  1.29739391e+01
  1.29739391e+01  1.30045356e+01  1.36454736e+01  1.36454736e+01
  1.38532409e+01  1.38532409e+01  1.40899052e+01  3.34556645e+01]
E1 = -47.45402231109728  E_coul = 19.66491186933968
cycle= 2 E= -19.3783468244861  delta_E= 0.0207  |g|= 0.912  |ddm|= 1.65
    CPU time for cycle= 2     62.78 sec, wall time      0.51 sec
  HOMO = -0.436441822830599  LUMO = 0.0266580333457857
  mo_energy =
[-1.27372886e+00 -6.06561739e-01 -4.65172434e-01 -4.65172434e-01
 -4.36441823e-01  2.66580333e-02  2.66580333e-02  1.28004746e-01
  2.37475561e-01  2.92755997e-01  2.92755997e-01  2.97198658e-01
  2.97198658e-01  3.22059698e-01  4.05610477e-01  4.05610477e-01
  4.84332004e-01  5.77789984e-01  5.77789984e-01  6.18689998e-01
  7.70346774e-01  7.70346774e-01  7.75324951e-01  7.75324951e-01
  8.87140348e-01  9.40790158e-01  9.40790158e-01  9.63785549e-01
  9.63785549e-01  9.81459004e-01  9.81459004e-01  1.23189512e+00
  1.28540861e+00  1.34914350e+00  1.34914350e+00  1.35116130e+00
  1.50158664e+00  1.50158664e+00  1.56602023e+00  1.82314131e+00
  1.82314131e+00  1.98319879e+00  2.17555079e+00  2.17555079e+00
  2.17780574e+00  2.17780574e+00  2.24941962e+00  2.24941962e+00
  2.25625659e+00  2.25625659e+00  2.31987677e+00  2.31987677e+00
  2.37607154e+00  2.39392237e+00  2.39392237e+00  2.41062240e+00
  2.41062240e+00  2.55080883e+00  2.55080883e+00  2.59096226e+00
  2.65987747e+00  2.65987747e+00  3.11927247e+00  3.17816479e+00
  3.17816479e+00  3.40004796e+00  3.65002868e+00  3.65002868e+00
  4.06702754e+00  4.06702754e+00  4.51186596e+00  4.52074259e+00
  4.52074259e+00  4.52831739e+00  4.52831739e+00  4.85953456e+00
  4.85953456e+00  4.99565701e+00  5.28528465e+00  5.41376473e+00
  5.41376473e+00  6.68431154e+00  7.53683969e+00  7.53683969e+00
  8.41762430e+00  8.97628609e+00  8.97628609e+00  9.00027566e+00
  9.00027566e+00  9.10311249e+00  9.10311249e+00  9.23544579e+00
  9.23544579e+00  9.29173411e+00  1.01836384e+01  1.19235431e+01
  1.19235431e+01  1.21470021e+01  1.21470021e+01  1.26173226e+01
  1.26173226e+01  1.26526446e+01  1.32151457e+01  1.32151457e+01
  1.34311380e+01  1.34311380e+01  1.36769388e+01  3.29148259e+01]
E1 = -49.38024035423374  E_coul = 21.41941280413852
cycle= 3 E= -19.5500639328237  delta_E= -0.172  |g|= 0.0373  |ddm|= 0.928
    CPU time for cycle= 3     56.24 sec, wall time      0.44 sec
  HOMO = -0.43809559705873  LUMO = 0.0367374035449817
  mo_energy =
[-1.27869916 -0.61107712 -0.47563492 -0.47563492 -0.4380956   0.0367374
  0.0367374   0.13518723  0.24234106  0.29629698  0.29629698  0.30139827
  0.30139827  0.32254798  0.41247536  0.41247536  0.48663507  0.57513269
  0.57513269  0.62477408  0.77407323  0.77407323  0.77782489  0.77782489
  0.89200426  0.94672548  0.94672548  0.96905781  0.96905781  0.98928095
  0.98928095  1.23043924  1.2898663   1.35624185  1.35624185  1.36265908
  1.50025937  1.50025937  1.57200069  1.82070086  1.82070086  1.98480719
  2.17913498  2.17913498  2.18515123  2.18515123  2.25916736  2.25916736
  2.26148646  2.26148646  2.32436299  2.32436299  2.38784302  2.40268889
  2.40268889  2.41799418  2.41799418  2.56028486  2.56028486  2.59982334
  2.66775637  2.66775637  3.12167141  3.18626923  3.18626923  3.40460781
  3.64758595  3.64758595  4.066979    4.066979    4.51135262  4.51461321
  4.51461321  4.53107153  4.53107153  4.85657762  4.85657762  4.99600183
  5.29008098  5.42001969  5.42001969  6.68841861  7.5273924   7.5273924
  8.40998568  8.97092227  8.97092227  8.99656426  8.99656426  9.10126531
  9.10126531  9.23555333  9.23555333  9.29226154 10.19451207 11.91368606
 11.91368606 12.13922039 12.13922039 12.61098549 12.61098549 12.64634615
 13.20272897 13.20272897 13.42029785 13.42029785 13.66785615 32.89828329]
E1 = -49.389450276231216  E_coul = 21.427740113902086
cycle= 4 E= -19.5509465450576  delta_E= -0.000883  |g|= 0.0116  |ddm|= 0.11
    CPU time for cycle= 4     44.96 sec, wall time      0.35 sec
  HOMO = -0.438075883074581  LUMO = 0.0366181904697011
  mo_energy =
[-1.27843713 -0.61090108 -0.47434373 -0.47434373 -0.43807588  0.03661819
  0.03661819  0.13536553  0.24283258  0.29586398  0.29586398  0.30111803
  0.30111803  0.32216289  0.4125484   0.4125484   0.48644534  0.57456402
  0.57456402  0.62448064  0.77374308  0.77374308  0.77718107  0.77718107
  0.89255591  0.94549685  0.94549685  0.96929906  0.96929906  0.98857211
  0.98857211  1.22984863  1.28928902  1.35515934  1.35515934  1.3634278
  1.4997004   1.4997004   1.57130085  1.82056289  1.82056289  1.98448621
  2.1777168   2.1777168   2.18438786  2.18438786  2.25817254  2.25817254
  2.25964515  2.25964515  2.32465945  2.32465945  2.38889861  2.40342606
  2.40342606  2.41762441  2.41762441  2.55865103  2.55865103  2.59791175
  2.66574497  2.66574497  3.12262493  3.18578674  3.18578674  3.40425504
  3.64690331  3.64690331  4.06616076  4.06616076  4.51101881  4.51551722
  4.51551722  4.53027082  4.53027082  4.85705522  4.85705522  4.99742849
  5.28927398  5.41860745  5.41860745  6.68894993  7.52974731  7.52974731
  8.41228118  8.97082766  8.97082766  8.99665011  8.99665011  9.101247
  9.101247    9.23521248  9.23521248  9.29187306 10.19195354 11.91512465
 11.91512465 12.14098976 12.14098976 12.61292571 12.61292571 12.64860074
 13.2055906  13.2055906  13.42382195 13.42382195 13.67120608 32.90352494]
E1 = -49.37954488802594  E_coul = 21.417784289401183
cycle= 5 E= -19.5509969813532  delta_E= -5.04e-05  |g|= 0.00247  |ddm|= 0.0244
    CPU time for cycle= 5     52.13 sec, wall time      0.41 sec
  HOMO = -0.438138542525698  LUMO = 0.0363585796270219
  mo_energy =
[-1.27752014 -0.61060803 -0.47342942 -0.47342942 -0.43813854  0.03635858
  0.03635858  0.13525503  0.24267505  0.29568904  0.29568904  0.30094877
  0.30094877  0.32209098  0.41242521  0.41242521  0.48648586  0.57481985
  0.57481985  0.62436034  0.77363368  0.77363368  0.77694073  0.77694073
  0.89241474  0.94505749  0.94505749  0.96915604  0.96915604  0.98833573
  0.98833573  1.2300885   1.28936814  1.35475032  1.35475032  1.36308523
  1.50007352  1.50007352  1.57117306  1.8209323   1.8209323   1.98454782
  2.17723299  2.17723299  2.18406005  2.18406005  2.25776922  2.25776922
  2.25908412  2.25908412  2.32487367  2.32487367  2.38855887  2.4033125
  2.4033125   2.41741215  2.41741215  2.55828651  2.55828651  2.59781879
  2.66509135  2.66509135  3.12267157  3.1856849   3.1856849   3.40447312
  3.64753233  3.64753233  4.06672857  4.06672857  4.51168281  4.51633512
  4.51633512  4.53060261  4.53060261  4.85752434  4.85752434  4.99780625
  5.28946321  5.41833161  5.41833161  6.68913346  7.5307268   7.5307268
  8.41322639  8.97168436  8.97168436  8.99754699  8.99754699  9.10214999
  9.10214999  9.23609694  9.23609694  9.29271436 10.19131147 11.91609464
 11.91609464 12.14204663 12.14204663 12.61401235 12.61401235 12.64970673
 13.2066489  13.2066489  13.42499263 13.42499263 13.67237872 32.90474817]
E1 = -49.37639920907236  E_coul = 21.414636346680915
cycle= 6 E= -19.5509992451199  delta_E= -2.26e-06  |g|= 0.000245  |ddm|= 0.00716
    CPU time for cycle= 6     58.92 sec, wall time      0.46 sec
  HOMO = -0.438196655820571  LUMO = 0.0363650299412688
  mo_energy =
[-1.2775916  -0.61068381 -0.47353258 -0.47353258 -0.43819666  0.03636503
  0.03636503  0.13525156  0.242655    0.29567466  0.29567466  0.30093797
  0.30093797  0.32209265  0.41241578  0.41241578  0.48649159  0.57483925
  0.57483925  0.62434289  0.77361459  0.77361459  0.77692217  0.77692217
  0.892405    0.9450345   0.9450345   0.96914057  0.96914057  0.98831188
  0.98831188  1.23007527  1.28935287  1.35472787  1.35472787  1.36305575
  1.50006349  1.50006349  1.5711395   1.8209272   1.8209272   1.98454007
  2.1772058   2.1772058   2.18403406  2.18403406  2.25774184  2.25774184
  2.25905871  2.25905871  2.32483827  2.32483827  2.38853128  2.40328486
  2.40328486  2.41738982  2.41738982  2.55825733  2.55825733  2.59777822
  2.66506857  2.66506857  3.12265935  3.18566551  3.18566551  3.40443623
  3.64751816  3.64751816  4.06668894  4.06668894  4.51161507  4.51629906
  4.51629906  4.5305409   4.5305409   4.85750048  4.85750048  4.99778808
  5.28940945  5.41831209  5.41831209  6.68907882  7.53061558  7.53061558
  8.4131131   8.97162739  8.97162739  8.99748763  8.99748763  9.10208291
  9.10208291  9.236016    9.236016    9.29263236 10.19128005 11.91597999
 11.91597999 12.14193272 12.14193272 12.61389851 12.61389851 12.649605
 13.20651272 13.20651272 13.42487031 13.42487031 13.6722502  32.90455872]
E1 = -49.37662826131908  E_coul = 21.414865376071436
cycle= 7 E= -19.5509992679761  delta_E= -2.29e-08  |g|= 6.3e-05  |ddm|= 0.000928
    CPU time for cycle= 7     44.01 sec, wall time      0.34 sec
  HOMO = -0.43818265033925  LUMO = 0.0363816587141942
  mo_energy =
[-1.2775784  -0.61068024 -0.4735239  -0.4735239  -0.43818265  0.03638166
  0.03638166  0.13526147  0.24266288  0.29568394  0.29568394  0.30094721
  0.30094721  0.32209288  0.41242756  0.41242756  0.48649403  0.57483655
  0.57483655  0.62435434  0.77362282  0.77362282  0.77693136  0.77693136
  0.89241466  0.94505352  0.94505352  0.96915133  0.96915133  0.98833105
  0.98833105  1.23007679  1.28936345  1.35474719  1.35474719  1.36307858
  1.50006369  1.50006369  1.57115588  1.82092812  1.82092812  1.98454881
  2.17722307  2.17722307  2.18405122  2.18405122  2.25776413  2.25776413
  2.25908103  2.25908103  2.32485529  2.32485529  2.38855422  2.40330506
  2.40330506  2.4174056   2.4174056   2.55827898  2.55827898  2.59779607
  2.66509716  2.66509716  3.12267358  3.18568287  3.18568287  3.40445043
  3.64751554  3.64751554  4.0666914   4.0666914   4.51162438  4.51630598
  4.51630598  4.5305549   4.5305549   4.85751209  4.85751209  4.9978031
  5.2894311   5.41833608  5.41833608  6.689104    7.53064336  7.53064336
  8.41314114  8.97162819  8.97162819  8.99748994  8.99748994  9.10208661
  9.10208661  9.23602105  9.23602105  9.29263915 10.19131402 11.91599638
 11.91599638 12.14195128 12.14195128 12.61391893 12.61391893 12.64962653
 13.20654324 13.20654324 13.42490348 13.42490348 13.67228425 32.90461781]
E1 = -49.37651768064086  E_coul = 21.41475479348024
cycle= 8 E= -19.5509992698891  delta_E= -1.91e-09  |g|= 1.22e-05  |ddm|= 0.000261
    CPU time for cycle= 8     55.53 sec, wall time      0.43 sec
  HOMO = -0.438183123887389  LUMO = 0.0363820139709771
  mo_energy =
[-1.2775814  -0.6106825  -0.47352448 -0.47352448 -0.43818312  0.03638201
  0.03638201  0.13526149  0.24266303  0.29568434  0.29568434  0.30094746
  0.30094746  0.32209243  0.41242759  0.41242759  0.4864939   0.57483644
  0.57483644  0.62435401  0.77362314  0.77362314  0.77693192  0.77693192
  0.89241483  0.94505384  0.94505384  0.9691517   0.9691517   0.98833085
  0.98833085  1.23007574  1.28936284  1.35474745  1.35474745  1.36307888
  1.50006343  1.50006343  1.57115511  1.82092754  1.82092754  1.98454839
  2.17722373  2.17722373  2.18405169  2.18405169  2.25776427  2.25776427
  2.25908141  2.25908141  2.32485451  2.32485451  2.38855459  2.40330518
  2.40330518  2.4174059   2.4174059   2.55827858  2.55827858  2.59779482
  2.66509714  2.66509714  3.12267306  3.18568264  3.18568264  3.40444952
  3.64751503  3.64751503  4.06669028  4.06669028  4.51162194  4.51630473
  4.51630473  4.53055316  4.53055316  4.8575111   4.8575111   4.99780233
  5.28942896  5.41833552  5.41833552  6.68910222  7.53063918  7.53063918
  8.4131369   8.97162678  8.97162678  8.99748846  8.99748846  9.1020849
  9.1020849   9.23601893  9.23601893  9.29263688 10.19131283 11.91599309
 11.91599309 12.14194809 12.14194809 12.61391571 12.61391571 12.64962358
 13.2065386  13.2065386  13.4248993  13.4248993  13.67227989 32.90460937]
E1 = -49.37653235891822  E_coul = 21.414769471698143
cycle= 9 E= -19.5509992699486  delta_E= -5.95e-11  |g|= 1.13e-06  |ddm|= 5.11e-05
    CPU time for cycle= 9     45.65 sec, wall time      0.36 sec
  HOMO = -0.438183285815698  LUMO = 0.0363819257638428
  mo_energy =
[-1.27758165 -0.6106827  -0.47352454 -0.47352454 -0.43818329  0.03638193
  0.03638193  0.13526144  0.24266303  0.2956843   0.2956843   0.30094744
  0.30094744  0.32209232  0.41242755  0.41242755  0.48649382  0.57483634
  0.57483634  0.62435392  0.77362309  0.77362309  0.7769319   0.7769319
  0.89241477  0.94505375  0.94505375  0.96915166  0.96915166  0.98833073
  0.98833073  1.23007554  1.28936271  1.35474735  1.35474735  1.36307876
  1.50006326  1.50006326  1.57115496  1.82092737  1.82092737  1.98454823
  2.17722366  2.17722366  2.18405159  2.18405159  2.25776414  2.25776414
  2.25908129  2.25908129  2.32485436  2.32485436  2.38855446  2.40330504
  2.40330504  2.41740578  2.41740578  2.55827843  2.55827843  2.59779465
  2.66509697  2.66509697  3.12267289  3.18568246  3.18568246  3.40444933
  3.64751478  3.64751478  4.06669004  4.06669004  4.51162172  4.51630453
  4.51630453  4.53055294  4.53055294  4.85751094  4.85751094  4.99780217
  5.28942874  5.41833532  5.41833532  6.68910201  7.53063902  7.53063902
  8.41313678  8.97162645  8.97162645  8.99748818  8.99748818  9.10208465
  9.10208465  9.23601868  9.23601868  9.29263663 10.1913126  11.9159928
 11.9159928  12.14194786 12.14194786 12.61391552 12.61391552 12.64962343
 13.20653841 13.20653841 13.4248992  13.4248992  13.6722798  32.90460935]
E1 = -49.376532574623596  E_coul = 21.41476968740283
Extra cycle  E= -19.5509992699492  delta_E= -6.89e-13  |g|= 4.17e-07  |ddm|= 4.65e-06
    CPU time for scf_cycle    639.77 sec, wall time      5.32 sec
    CPU time for SCF    639.80 sec, wall time      5.32 sec
converged SCF energy = -19.5509992699492
