#INFO: **** input file is /home/nkousuke/lustre/toBeSync/turboRVB/05turbo-genius-development/turbogenius_paper/04data/sanity_checks/03pyscf_HF_turbo_VMC_via_trexio/00open_boundary/results/CS/pyscf-HF-workflow/run.py ****

from pyscf_wrapper import Pyscf_wrapper

# input variables
pyscf_chkfile="pyscf.chk"
structure_file="CS.xyz"

# input variables
omp_num_threads=128
charge=0
spin=0
basis="ccecp-ccpvqz"
ecp="ccecp"
scf_method="HF"
dft_xc="NA"
solver_newton=False
MP2_flag=False
CCSD_flag=False
pyscf_output="out.pyscf"
twist_average=False
exp_to_discard=0.0
kpt=[0.0, 0.0, 0.0]
kpt_grid=[1, 1, 1]
smearing_method="fermi"
smearing_sigma=0.0

pyscf_calc=Pyscf_wrapper(
                        structure_file=structure_file,
                        chkfile=pyscf_chkfile,
                        )

pyscf_calc.run_pyscf(
                  omp_num_threads=omp_num_threads,
                  charge=charge,
                  spin=spin,
                  basis=basis,
                  ecp=ecp,
                  scf_method=scf_method,
                  dft_xc=dft_xc,
                  solver_newton=solver_newton,
                  MP2_flag=MP2_flag,
                  CCSD_flag=CCSD_flag,
                  pyscf_output=pyscf_output,
                  twist_average=twist_average,
                  exp_to_discard=exp_to_discard,
                  kpt=kpt,
                  kpt_grid=kpt_grid,
                  smearing_method=smearing_method,
                  smearing_sigma=smearing_sigma
                  )
                #INFO: ******************** input file end ********************


System: uname_result(system='Linux', node='spcc-145', release='5.4.0-66-generic', version='#74-Ubuntu SMP Wed Jan 27 22:54:38 UTC 2021', machine='x86_64', processor='x86_64')  Threads 128
Python 3.7.3 (default, Mar 27 2019, 22:11:17) 
[GCC 7.3.0]
numpy 1.20.1  scipy 1.7.3
Date: Mon Dec 19 18:04:04 2022
PySCF version 2.0.1
PySCF path  /home/nkousuke/application/anaconda3/lib/python3.7/site-packages/pyscf

[CONFIG] conf_file /home/nkousuke/.pyscf_conf.py
[INPUT] verbose = 5
[INPUT] max_memory = 506594.84765625 
[INPUT] num. atoms = 2
[INPUT] num. electrons = 10
[INPUT] charge = 0
[INPUT] spin (= nelec alpha-beta = 2S) = 0
[INPUT] symmetry False subgroup None
[INPUT] Mole.unit = A
[INPUT]  1 C      0.000000000000   0.000000000000  -1.116400000000 AA    0.000000000000   0.000000000000  -2.109690245464 Bohr
[INPUT]  2 S      0.000000000000   0.000000000000   0.418600000000 AA    0.000000000000   0.000000000000   0.791039355743 Bohr
[INPUT] ---------------- BASIS SET ---------------- 
[INPUT] l, kappa, [nprim/nctr], expnt,             c_1 c_2 ...
[INPUT] S
[INPUT] 0    0    [10   /1   ]  14.05257          0.002102
                                7.864913          -0.011042
                                4.401818          0.086618
                                2.4636            -0.271004
                                1.378823          -0.151274
                                0.771696          0.136044
                                0.431901          0.39436
                                0.241726          0.432098
                                0.135289          0.230974
                                0.075718          0.051205
[INPUT] 0    0    [1    /1   ]  0.818729             1
[INPUT] 0    0    [1    /1   ]  0.332501             1
[INPUT] 0    0    [1    /1   ]  0.135035             1
[INPUT] 1    0    [10   /1   ]  6.808844          -0.003573
                                3.94156           0.001903
                                2.281723          -0.065016
                                1.320863          0.042305
                                0.764632          0.158772
                                0.442637          0.278172
                                0.256237          0.293821
                                0.148333          0.248015
                                0.085868          0.114905
                                0.049708          0.032934
[INPUT] 1    0    [1    /1   ]  2.088209             1
[INPUT] 1    0    [1    /1   ]  0.838124             1
[INPUT] 1    0    [1    /1   ]  0.33639              1
[INPUT] 2    0    [1    /1   ]  1.68189              1
[INPUT] 2    0    [1    /1   ]  0.613672             1
[INPUT] 2    0    [1    /1   ]  0.223911             1
[INPUT] 3    0    [1    /1   ]  0.898397             1
[INPUT] 3    0    [1    /1   ]  0.339271             1
[INPUT] 4    0    [1    /1   ]  0.691446             1
[INPUT] C
[INPUT] 0    0    [9    /1   ]  13.073594         0.0051583
                                6.541187          0.0603424
                                4.573411          -0.1978471
                                1.637494          -0.081034
                                0.819297          0.2321726
                                0.409924          0.2914643
                                0.2313            0.4336405
                                0.102619          0.213194
                                0.051344          0.0049848
[INPUT] 0    0    [1    /1   ]  0.846879             1
[INPUT] 0    0    [1    /1   ]  0.269659             1
[INPUT] 0    0    [1    /1   ]  0.109576             1
[INPUT] 1    0    [9    /1   ]  9.934169          0.0209076
                                3.886955          0.0572698
                                1.871016          0.1122682
                                0.935757          0.2130082
                                0.468003          0.2835815
                                0.239473          0.3011207
                                0.117063          0.2016934
                                0.058547          0.0453575
                                0.029281          0.0029775
[INPUT] 1    0    [1    /1   ]  0.804681             1
[INPUT] 1    0    [1    /1   ]  0.313254             1
[INPUT] 1    0    [1    /1   ]  0.105389             1
[INPUT] 2    0    [1    /1   ]  2.01376              1
[INPUT] 2    0    [1    /1   ]  0.684884             1
[INPUT] 2    0    [1    /1   ]  0.240171             1
[INPUT] 3    0    [1    /1   ]  0.457302             1
[INPUT] 3    0    [1    /1   ]  1.32493              1
[INPUT] 4    0    [1    /1   ]  1.03418              1

nuclear repulsion = 8.27378049646905
number of shells = 28
number of NR pGTOs = 176
number of NR cGTOs = 108
basis = ccecp-ccpvqz
ecp = ccecp
CPU time:         7.00


******** <class 'pyscf.scf.hf.RHF'> ********
method = RHF
initial guess = minao
damping factor = 0
level_shift factor = 0
DIIS = <class 'pyscf.scf.diis.CDIIS'>
diis_start_cycle = 1
diis_space = 8
SCF conv_tol = 1e-09
SCF conv_tol_grad = None
SCF max_cycles = 200
direct_scf = True
direct_scf_tol = 1e-13
chkfile to save SCF result = pyscf.chk
max_memory 506594 MB (current use 106 MB)
Set gradient conv threshold to 3.16228e-05
E1 = -40.64473902112125  E_coul = 17.19718735158942
init E= -15.1737711730628
cond(S) = 11038.145464704088
    CPU time for initialize scf    137.00 sec, wall time      1.15 sec
  HOMO = -0.304071727659518  LUMO = -0.0345856734379184
  mo_energy =
[-1.30233885 -0.66467079 -0.40114888 -0.40114888 -0.30407173 -0.03458567
 -0.03458567  0.18197524  0.24294838  0.34167695  0.34167695  0.34908853
  0.41948055  0.41948055  0.44297151  0.45857949  0.45857949  0.56500932
  0.56500932  0.67124156  0.72143933  0.72143933  0.86984111  0.94564248
  0.94564248  0.96370851  1.22300516  1.22300516  1.30887883  1.30887883
  1.31865288  1.35120476  1.35120476  1.45791542  1.45791542  1.5211752
  1.5211752   1.55253378  1.69124876  1.69124876  1.79250651  1.83106464
  1.83106464  2.00929993  2.11208898  2.11208898  2.19827933  2.19827933
  2.21882548  2.21882548  2.27684054  2.27965792  2.27965792  2.51117889
  2.7371488   2.7371488   3.07129363  3.26455394  3.26455394  3.26465678
  3.29857476  3.29857476  3.45723317  3.45723317  3.52164332  3.52164332
  3.62445861  3.62445861  3.69074724  3.75965282  3.75965282  3.92634365
  3.92634365  4.16549661  4.18808787  4.18808787  4.68164903  4.68164903
  5.06474086  5.1931212   5.1931212   5.319162    5.319162    5.60687393
  5.60687393  5.77914797  5.77914797  5.84818442  5.84818442  5.87080594
  6.03878794  6.06430769  6.06430769  6.0824793   6.0824793   6.39253742
  6.39253742  6.76253504  6.76253504  7.19445596  7.71225447  7.71225447
  7.96683124  8.95514969  8.95514969 10.11736478 15.07255861 17.26961554]
E1 = -40.7505900662276  E_coul = 17.090306419477713
cycle= 1 E= -15.3865031502808  delta_E= -0.213  |g|= 0.199  |ddm|= 2.37
    CPU time for cycle= 1     33.97 sec, wall time      0.37 sec
  HOMO = -0.479781080938201  LUMO = 0.0336087146177877
  mo_energy =
[-1.13749381 -0.70806799 -0.4883243  -0.47978108 -0.47978108  0.03360871
  0.03360871  0.19528129  0.24110344  0.33464094  0.33464094  0.34655822
  0.40899906  0.40899906  0.44954689  0.4647495   0.4647495   0.56533285
  0.56533285  0.67569594  0.71671821  0.71671821  0.87381264  0.95174173
  0.95174173  0.96737014  1.21666999  1.21666999  1.30528564  1.30528564
  1.31581328  1.35451637  1.35451637  1.45736058  1.45736058  1.51056161
  1.51056161  1.56304168  1.67604434  1.67604434  1.78745217  1.81252236
  1.81252236  2.01539286  2.09815434  2.09815434  2.2037962   2.2037962
  2.20679747  2.20679747  2.27457471  2.28305756  2.28305756  2.50470279
  2.74008184  2.74008184  3.08501474  3.26200873  3.26200873  3.26528388
  3.30053919  3.30053919  3.46871428  3.46871428  3.52083399  3.52083399
  3.63687207  3.63687207  3.71009605  3.75540638  3.75540638  3.92573786
  3.92573786  4.1632525   4.19167359  4.19167359  4.69332807  4.69332807
  5.07585464  5.1498253   5.1498253   5.29860436  5.29860436  5.55391139
  5.55391139  5.76055421  5.76055421  5.79977826  5.79977826  5.85419726
  6.05037773  6.06143163  6.06143163  6.07635681  6.07635681  6.3943487
  6.3943487   6.70965656  6.70965656  7.20358248  7.70268062  7.70268062
  7.96327443  8.9627149   8.9627149  10.1319151  15.08780652 17.20960023]
E1 = -41.03062119935805  E_coul = 17.359752399582455
cycle= 2 E= -15.3970883033065  delta_E= -0.0106  |g|= 0.119  |ddm|= 0.71
    CPU time for cycle= 2     59.78 sec, wall time      0.47 sec
  HOMO = -0.459184585377423  LUMO = 0.0553669972219904
  mo_energy =
[-1.11039567 -0.70051362 -0.46762217 -0.46762217 -0.45918459  0.055367
  0.055367    0.19497434  0.24646513  0.34785401  0.34785401  0.36095291
  0.40905559  0.40905559  0.45617291  0.47001794  0.47001794  0.56962747
  0.56962747  0.67708093  0.73426038  0.73426038  0.88928022  0.96716013
  0.96716013  0.97376939  1.21197338  1.21197338  1.30503666  1.30503666
  1.31748571  1.35899832  1.35899832  1.44874541  1.44874541  1.52333682
  1.52333682  1.57430507  1.69945291  1.69945291  1.832761    1.84308012
  1.84308012  2.04143544  2.13101143  2.13101143  2.20868717  2.20868717
  2.24815357  2.24815357  2.31188983  2.32111922  2.32111922  2.48455326
  2.75713299  2.75713299  3.09510314  3.25100718  3.25100718  3.27520057
  3.29813366  3.29813366  3.47515353  3.47515353  3.5066708   3.5066708
  3.63979308  3.63979308  3.71984569  3.74424806  3.74424806  3.9129578
  3.9129578   4.1791964   4.1791964   4.18027117  4.70643745  4.70643745
  5.10315667  5.20324977  5.20324977  5.35103633  5.35103633  5.63171291
  5.63171291  5.81805379  5.81805379  5.86475184  5.86475184  5.92091529
  6.10522909  6.12137676  6.12137676  6.13405803  6.13405803  6.45827266
  6.45827266  6.78613423  6.78613423  7.26376362  7.76504684  7.76504684
  8.01378241  8.94844467  8.94844467 10.13948932 15.075943   17.3084659 ]
E1 = -40.94692906135076  E_coul = 17.271452021119863
cycle= 3 E= -15.4016965437618  delta_E= -0.00461  |g|= 0.0396  |ddm|= 0.203
    CPU time for cycle= 3     46.99 sec, wall time      0.37 sec
  HOMO = -0.461194970714273  LUMO = 0.0589350627049058
  mo_energy =
[-1.10371851 -0.69327538 -0.4660263  -0.46119497 -0.46119497  0.05893506
  0.05893506  0.19941889  0.24990038  0.34845371  0.34845371  0.35833804
  0.41549912  0.41549912  0.46049819  0.47321303  0.47321303  0.5751376
  0.5751376   0.68234237  0.73359772  0.73359772  0.88945119  0.96670841
  0.96670841  0.97866599  1.21932858  1.21932858  1.3120901   1.3120901
  1.32359452  1.36767409  1.36767409  1.46019156  1.46019156  1.52802409
  1.52802409  1.58269826  1.70011118  1.70011118  1.82648757  1.83943641
  1.83943641  2.0414021   2.13036376  2.13036376  2.2178925   2.2178925
  2.24268406  2.24268406  2.31184803  2.31812765  2.31812765  2.4986574
  2.76169747  2.76169747  3.10428896  3.26343979  3.26343979  3.28345011
  3.30903589  3.30903589  3.48688363  3.48688363  3.52206063  3.52206063
  3.65268301  3.65268301  3.73224899  3.75697784  3.75697784  3.92705045
  3.92705045  4.1880691   4.1961814   4.1961814   4.71715696  4.71715696
  5.11030712  5.1952827   5.1952827   5.34667229  5.34667229  5.62416285
  5.62416285  5.8172069   5.8172069   5.85570876  5.85570876  5.91832941
  6.10393639  6.11993463  6.11993463  6.12751722  6.12751722  6.45527205
  6.45527205  6.77789118  6.77789118  7.26576354  7.76344895  7.76344895
  8.01687033  8.96830781  8.96830781 10.15544857 15.09679285 17.30180985]
E1 = -40.947770526258886  E_coul = 17.271526509135114
cycle= 4 E= -15.4024635206547  delta_E= -0.000767  |g|= 0.00896  |ddm|= 0.138
    CPU time for cycle= 4     76.45 sec, wall time      0.61 sec
  HOMO = -0.464070177792357  LUMO = 0.0572678728516736
  mo_energy =
[-1.10801793 -0.6954561  -0.469243   -0.46407018 -0.46407018  0.05726787
  0.05726787  0.19878678  0.24810401  0.34747399  0.34747399  0.35787679
  0.4132769   0.4132769   0.45899893  0.47218069  0.47218069  0.57346939
  0.57346939  0.68113598  0.73219686  0.73219686  0.88830491  0.96586507
  0.96586507  0.97626659  1.21769757  1.21769757  1.30985629  1.30985629
  1.32153193  1.36431387  1.36431387  1.4573123   1.4573123   1.52615979
  1.52615979  1.57886489  1.6980211   1.6980211   1.8255358   1.83730714
  1.83730714  2.03984445  2.12760405  2.12760405  2.21420088  2.21420088
  2.24096681  2.24096681  2.30897787  2.31649257  2.31649257  2.49616478
  2.75920609  2.75920609  3.10030803  3.26076185  3.26076185  3.28059977
  3.30575544  3.30575544  3.4821093   3.4821093   3.51834104  3.51834104
  3.64805452  3.64805452  3.72703385  3.75434811  3.75434811  3.92414839
  3.92414839  4.18463047  4.19114618  4.19114618  4.7121987   4.7121987
  5.10705333  5.19173522  5.19173522  5.34325423  5.34325423  5.62065153
  5.62065153  5.81268489  5.81268489  5.85209701  5.85209701  5.91450677
  6.10110119  6.11680918  6.11680918  6.12579872  6.12579872  6.45278929
  6.45278929  6.77401043  6.77401043  7.26254393  7.7600467   7.7600467
  8.01343144  8.9620376   8.9620376  10.14964525 15.08962995 17.29811508]
E1 = -40.953201701004865  E_coul = 17.276884808483175
cycle= 5 E= -15.4025363960526  delta_E= -7.29e-05  |g|= 0.00337  |ddm|= 0.0428
    CPU time for cycle= 5     33.18 sec, wall time      0.26 sec
  HOMO = -0.463844572124865  LUMO = 0.0572191082892532
  mo_energy =
[-1.10779323 -0.6954113  -0.46969135 -0.46384457 -0.46384457  0.05721911
  0.05721911  0.19865578  0.24803794  0.34749078  0.34749078  0.3575927
  0.41348219  0.41348219  0.45901097  0.47227253  0.47227253  0.57351165
  0.57351165  0.68125295  0.73192476  0.73192476  0.88812475  0.96567927
  0.96567927  0.97603194  1.21812134  1.21812134  1.31009049  1.31009049
  1.3215716   1.36456345  1.36456345  1.45778769  1.45778769  1.52607738
  1.52607738  1.57894868  1.69782677  1.69782677  1.82508899  1.83671743
  1.83671743  2.03957619  2.1272493   2.1272493   2.21450408  2.21450408
  2.24039105  2.24039105  2.30876235  2.31614397  2.31614397  2.49620096
  2.75910957  2.75910957  3.10044827  3.26158538  3.26158538  3.28043068
  3.30613553  3.30613553  3.48255252  3.48255252  3.5192124   3.5192124
  3.64829216  3.64829216  3.72751148  3.75442421  3.75442421  3.92435958
  3.92435958  4.18448872  4.19204086  4.19204086  4.71230807  4.71230807
  5.10710639  5.19070287  5.19070287  5.34261033  5.34261033  5.62003397
  5.62003397  5.81234592  5.81234592  5.85112306  5.85112306  5.91420547
  6.1009413   6.11661192  6.11661192  6.1252277   6.1252277   6.45258787
  6.45258787  6.77325362  6.77325362  7.26261002  7.75982278  7.75982278
  8.01341779  8.96291042  8.96291042 10.14999544 15.09051269 17.29780267]
E1 = -40.95204792468  E_coul = 17.275718777300895
cycle= 6 E= -15.4025486509101  delta_E= -1.23e-05  |g|= 0.00066  |ddm|= 0.0174
    CPU time for cycle= 6     39.40 sec, wall time      0.31 sec
  HOMO = -0.463723784120725  LUMO = 0.0572926087698195
  mo_energy =
[-1.10773624 -0.695284   -0.46970443 -0.46372378 -0.46372378  0.05729261
  0.05729261  0.19872361  0.24812849  0.34749719  0.34749719  0.35755417
  0.41360972  0.41360972  0.45912141  0.4723476   0.4723476   0.57363559
  0.57363559  0.68134177  0.73191273  0.73191273  0.88811191  0.96566309
  0.96566309  0.9761588   1.21828753  1.21828753  1.31023531  1.31023531
  1.32169121  1.36471509  1.36471509  1.45801258  1.45801258  1.52620978
  1.52620978  1.57908857  1.6979196   1.6979196   1.82503204  1.83665524
  1.83665524  2.03956562  2.12726293  2.12726293  2.21465124  2.21465124
  2.24033464  2.24033464  2.30879996  2.31611034  2.31611034  2.49651408
  2.75920657  2.75920657  3.10054235  3.26187373  3.26187373  3.28059979
  3.30633579  3.30633579  3.48271491  3.48271491  3.51955258  3.51955258
  3.64847975  3.64847975  3.72766979  3.7546986   3.7546986   3.92464365
  3.92464365  4.18466001  4.19237164  4.19237164  4.71245057  4.71245057
  5.10725306  5.19065713  5.19065713  5.34259285  5.34259285  5.62013482
  5.62013482  5.81241837  5.81241837  5.85113253  5.85113253  5.91427874
  6.10092894  6.11666307  6.11666307  6.12518562  6.12518562  6.45262344
  6.45262344  6.77334311  6.77334311  7.26271743  7.75991112  7.75991112
  8.01357417  8.96325273  8.96325273 10.1502324  15.09082146 17.29801603]
E1 = -40.95204198409822  E_coul = 17.275712505179015
cycle= 7 E= -15.4025489824502  delta_E= -3.32e-07  |g|= 9.41e-05  |ddm|= 0.00204
    CPU time for cycle= 7     74.25 sec, wall time      0.59 sec
  HOMO = -0.463742200770411  LUMO = 0.0572617402528051
  mo_energy =
[-1.10776487 -0.69531853 -0.46972936 -0.4637422  -0.4637422   0.05726174
  0.05726174  0.1987099   0.24811334  0.34748636  0.34748636  0.35753732
  0.41360152  0.41360152  0.45910454  0.47233618  0.47233618  0.57361427
  0.57361427  0.68133279  0.73189627  0.73189627  0.88809091  0.96564465
  0.96564465  0.97613269  1.21828692  1.21828692  1.3102257   1.3102257
  1.32167776  1.36469392  1.36469392  1.45799716  1.45799716  1.52618394
  1.52618394  1.57905259  1.69788563  1.69788563  1.82498235  1.83663113
  1.83663113  2.03953332  2.12723469  2.12723469  2.21462905  2.21462905
  2.24029343  2.24029343  2.30876135  2.31606978  2.31606978  2.49648096
  2.75917213  2.75917213  3.10051354  3.261869    3.261869    3.28055637
  3.30632177  3.30632177  3.48269267  3.48269267  3.51953487  3.51953487
  3.64844668  3.64844668  3.72763956  3.75466972  3.75466972  3.92461292
  3.92461292  4.18461547  4.1923417   4.1923417   4.71240683  4.71240683
  5.10719192  5.19061066  5.19061066  5.34254829  5.34254829  5.62005266
  5.62005266  5.81237275  5.81237275  5.85106794  5.85106794  5.91421545
  6.10087175  6.11660394  6.11660394  6.12511942  6.12511942  6.45255521
  6.45255521  6.7732625   6.7732625   7.26264163  7.75983991  7.75983991
  8.01349839  8.96320867  8.96320867 10.15017225 15.09077223 17.29790359]
E1 = -40.952097349294625  E_coul = 17.27576786609189
cycle= 8 E= -15.4025489867337  delta_E= -4.28e-09  |g|= 1.17e-05  |ddm|= 0.000316
    CPU time for cycle= 8     39.32 sec, wall time      0.31 sec
  HOMO = -0.463739961140929  LUMO = 0.0572651047358244
  mo_energy =
[-1.10776227 -0.6953154  -0.46972426 -0.46373996 -0.46373996  0.0572651
  0.0572651   0.19871151  0.24811434  0.34748725  0.34748725  0.3575397
  0.41360228  0.41360228  0.45910675  0.47233768  0.47233768  0.57361661
  0.57361661  0.68133418  0.73189777  0.73189777  0.8880933   0.965647
  0.965647    0.9761356   1.21828701  1.21828701  1.31022684  1.31022684
  1.32167903  1.36469633  1.36469633  1.45799905  1.45799905  1.52618686
  1.52618686  1.57905674  1.69788957  1.69788957  1.82498956  1.83663308
  1.83663308  2.03953709  2.12723749  2.12723749  2.21463168  2.21463168
  2.24029826  2.24029826  2.30876595  2.31607516  2.31607516  2.49648513
  2.75917637  2.75917637  3.10051651  3.2618698   3.2618698   3.28056152
  3.30632319  3.30632319  3.48269508  3.48269508  3.51953726  3.51953726
  3.64845054  3.64845054  3.72764345  3.75467302  3.75467302  3.92461664
  3.92461664  4.18462066  4.1923455   4.1923455   4.71241203  4.71241203
  5.10719991  5.19061558  5.19061558  5.3425533   5.3425533   5.6200628
  5.6200628   5.81237788  5.81237788  5.85107591  5.85107591  5.91422365
  6.10087945  6.11661155  6.11661155  6.12512842  6.12512842  6.45256444
  6.45256444  6.77327271  6.77327271  7.26265169  7.7598493   7.7598493
  8.01350841  8.96321422  8.96321422 10.15017979 15.09077857 17.29791772]
E1 = -40.95209039893308  E_coul = 17.27576091567454
cycle= 9 E= -15.4025489867895  delta_E= -5.58e-11  |g|= 1.34e-06  |ddm|= 3.51e-05
    CPU time for cycle= 9     40.39 sec, wall time      0.32 sec
  HOMO = -0.463740332943969  LUMO = 0.0572646706091988
  mo_energy =
[-1.1077629  -0.69531588 -0.46972484 -0.46374033 -0.46374033  0.05726467
  0.05726467  0.1987114   0.24811408  0.34748708  0.34748708  0.35753955
  0.41360194  0.41360194  0.45910648  0.47233748  0.47233748  0.57361627
  0.57361627  0.68133397  0.7318975   0.7318975   0.88809303  0.96564678
  0.96564678  0.97613526  1.21828675  1.21828675  1.31022652  1.31022652
  1.3216787   1.36469585  1.36469585  1.4579986   1.4579986   1.52618648
  1.52618648  1.57905619  1.69788915  1.69788915  1.82498912  1.8366327
  1.8366327   2.0395367   2.12723704  2.12723704  2.21463115  2.21463115
  2.24029782  2.24029782  2.30876546  2.31607473  2.31607473  2.49648465
  2.7591759   2.7591759   3.10051593  3.26186937  3.26186937  3.28056097
  3.3063227   3.3063227   3.48269446  3.48269446  3.51953666  3.51953666
  3.64844991  3.64844991  3.72764282  3.75467252  3.75467252  3.92461613
  3.92461613  4.18462007  4.19234475  4.19234475  4.71241133  4.71241133
  5.10719923  5.19061502  5.19061502  5.34255271  5.34255271  5.62006203
  5.62006203  5.81237721  5.81237721  5.85107527  5.85107527  5.91422294
  6.10087882  6.11661089  6.11661089  6.12512783  6.12512783  6.45256377
  6.45256377  6.77327196  6.77327196  7.26265093  7.75984857  7.75984857
  8.01350765  8.96321332  8.96321332 10.15017894 15.09077762 17.29791674]
E1 = -40.952090661475324  E_coul = 17.275761178216015
Extra cycle  E= -15.4025489867903  delta_E= -7.67e-13  |g|= 3.94e-07  |ddm|= 6.56e-06
    CPU time for scf_cycle    649.05 sec, wall time      5.28 sec
    CPU time for SCF    649.06 sec, wall time      5.28 sec
converged SCF energy = -15.4025489867903
