#INFO: **** input file is /home/nkousuke/lustre/toBeSync/turboRVB/05turbo-genius-development/turbogenius_paper/04data/sanity_checks/03pyscf_HF_turbo_VMC_via_trexio/00open_boundary/results/PH3/pyscf-HF-workflow/run.py ****

from pyscf_wrapper import Pyscf_wrapper

# input variables
pyscf_chkfile="pyscf.chk"
structure_file="PH3.xyz"

# input variables
omp_num_threads=128
charge=0
spin=0
basis="ccecp-ccpvqz"
ecp="ccecp"
scf_method="HF"
dft_xc="NA"
solver_newton=False
MP2_flag=False
CCSD_flag=False
pyscf_output="out.pyscf"
twist_average=False
exp_to_discard=0.0
kpt=[0.0, 0.0, 0.0]
kpt_grid=[1, 1, 1]
smearing_method="fermi"
smearing_sigma=0.0

pyscf_calc=Pyscf_wrapper(
                        structure_file=structure_file,
                        chkfile=pyscf_chkfile,
                        )

pyscf_calc.run_pyscf(
                  omp_num_threads=omp_num_threads,
                  charge=charge,
                  spin=spin,
                  basis=basis,
                  ecp=ecp,
                  scf_method=scf_method,
                  dft_xc=dft_xc,
                  solver_newton=solver_newton,
                  MP2_flag=MP2_flag,
                  CCSD_flag=CCSD_flag,
                  pyscf_output=pyscf_output,
                  twist_average=twist_average,
                  exp_to_discard=exp_to_discard,
                  kpt=kpt,
                  kpt_grid=kpt_grid,
                  smearing_method=smearing_method,
                  smearing_sigma=smearing_sigma
                  )
                #INFO: ******************** input file end ********************


System: uname_result(system='Linux', node='spcc-105', release='5.4.0-66-generic', version='#74-Ubuntu SMP Wed Jan 27 22:54:38 UTC 2021', machine='x86_64', processor='x86_64')  Threads 128
Python 3.7.3 (default, Mar 27 2019, 22:11:17) 
[GCC 7.3.0]
numpy 1.20.1  scipy 1.7.3
Date: Mon Dec 19 18:07:13 2022
PySCF version 2.0.1
PySCF path  /home/nkousuke/application/anaconda3/lib/python3.7/site-packages/pyscf

[CONFIG] conf_file /home/nkousuke/.pyscf_conf.py
[INPUT] verbose = 5
[INPUT] max_memory = 507590.07421875 
[INPUT] num. atoms = 4
[INPUT] num. electrons = 8
[INPUT] charge = 0
[INPUT] spin (= nelec alpha-beta = 2S) = 0
[INPUT] symmetry False subgroup None
[INPUT] Mole.unit = A
[INPUT]  1 P      0.000000000000   0.000000000000   0.127520000000 AA    0.000000000000   0.000000000000   0.240977875405 Bohr
[INPUT]  2 H      0.000000000000   1.186250000000  -0.637610000000 AA    0.000000000000   2.241687615265  -1.204908274284 Bohr
[INPUT]  3 H      1.027320000000  -0.593130000000  -0.637610000000 AA    1.941353442288  -1.120853256263  -1.204908274284 Bohr
[INPUT]  4 H     -1.027320000000  -0.593130000000  -0.637610000000 AA   -1.941353442288  -1.120853256263  -1.204908274284 Bohr
[INPUT] ---------------- BASIS SET ---------------- 
[INPUT] l, kappa, [nprim/nctr], expnt,             c_1 c_2 ...
[INPUT] P
[INPUT] 0    0    [10   /1   ]  5.054268          0.001781
                                3.094719          0.077653
                                1.894891          -0.312344
                                1.160239          -0.045804
                                0.710412          -0.029427
                                0.434984          0.31856
                                0.26634           0.309169
                                0.16308           0.376899
                                0.099853          0.152113
                                0.06114           0.054943
[INPUT] 0    0    [1    /1   ]  0.636005             1
[INPUT] 0    0    [1    /1   ]  0.25859              1
[INPUT] 0    0    [1    /1   ]  0.105139             1
[INPUT] 1    0    [10   /1   ]  5.861284          -0.00316
                                3.406365          0.007462
                                1.979655          -0.060893
                                1.150503          0.015297
                                0.668631          0.123431
                                0.388584          0.257276
                                0.225831          0.305131
                                0.131245          0.276016
                                0.076275          0.134133
                                0.044328          0.040073
[INPUT] 1    0    [1    /1   ]  1.653678             1
[INPUT] 1    0    [1    /1   ]  0.679946             1
[INPUT] 1    0    [1    /1   ]  0.279575             1
[INPUT] 2    0    [1    /1   ]  1.375779             1
[INPUT] 2    0    [1    /1   ]  0.502887             1
[INPUT] 2    0    [1    /1   ]  0.18382              1
[INPUT] 3    0    [1    /1   ]  0.72673              1
[INPUT] 3    0    [1    /1   ]  0.284724             1
[INPUT] 4    0    [1    /1   ]  0.59499              1
[INPUT] H
[INPUT] 0    0    [8    /1   ]  23.843185         0.0041149
                                10.212443         0.0104644
                                4.374164          0.0280111
                                1.873529          0.0758862
                                0.802465          0.1821062
                                0.343709          0.3485214
                                0.147217          0.3782313
                                0.063055          0.1164241
[INPUT] 0    0    [1    /1   ]  0.081856             1
[INPUT] 0    0    [1    /1   ]  0.233254             1
[INPUT] 0    0    [1    /1   ]  0.664673             1
[INPUT] 1    0    [1    /1   ]  0.284469             1
[INPUT] 1    0    [1    /1   ]  0.847159             1
[INPUT] 1    0    [1    /1   ]  2.522868             1
[INPUT] 2    0    [1    /1   ]  0.665279             1
[INPUT] 2    0    [1    /1   ]  2.048739             1
[INPUT] 3    0    [1    /1   ]  1.42146              1

nuclear repulsion = 6.39582040108012
number of shells = 44
number of NR pGTOs = 201
number of NR cGTOs = 144
basis = ccecp-ccpvqz
ecp = ccecp
CPU time:         5.36


******** <class 'pyscf.scf.hf.RHF'> ********
method = RHF
initial guess = minao
damping factor = 0
level_shift factor = 0
DIIS = <class 'pyscf.scf.diis.CDIIS'>
diis_start_cycle = 1
diis_space = 8
SCF conv_tol = 1e-09
SCF conv_tol_grad = None
SCF max_cycles = 200
direct_scf = True
direct_scf_tol = 1e-13
chkfile to save SCF result = pyscf.chk
max_memory 507590 MB (current use 106 MB)
Set gradient conv threshold to 3.16228e-05
E1 = -23.88517780326414  E_coul = 9.817185748995106
init E= -7.67217165318892
cond(S) = 22403.37737458342
    CPU time for initialize scf    141.27 sec, wall time      1.25 sec
  HOMO = -0.304431997031829  LUMO = 0.0851509394780971
  mo_energy =
[-1.01011594 -0.46748683 -0.46748502 -0.304432    0.08515094  0.09468577
  0.0946867   0.21261797  0.21261832  0.3167328   0.33302386  0.33302423
  0.33489169  0.39895487  0.39895503  0.41268839  0.50371719  0.61881833
  0.61881909  0.7329009   0.74702586  0.74702751  0.84282306  0.8428252
  0.92609877  1.01977265  1.01977359  1.02575816  1.07385826  1.13996072
  1.15822069  1.15822073  1.18214541  1.18214561  1.22177773  1.22249288
  1.33835588  1.33835905  1.36913722  1.36913797  1.46204881  1.60337274
  1.60337456  1.90798478  2.15572377  2.1557277   2.1757426   2.17574676
  2.20819417  2.28929206  2.28929232  2.39631511  2.45244244  2.45329038
  2.45329136  2.48765786  2.50721274  2.50721291  2.54493521  2.68922371
  2.69751526  2.69751683  2.80072815  2.84372552  2.84372719  2.90580917
  3.01409332  3.02215427  3.02215512  3.06152783  3.10639488  3.10639674
  3.15408889  3.1540903   3.18694975  3.2139972   3.2139978   3.31793283
  3.37907453  3.37907469  3.66001683  3.74233246  3.74233381  4.0485672
  4.04856974  4.0802095   4.15473311  4.2275093   4.22751215  4.37601809
  4.51441204  4.51441501  6.14770335  6.14770525  6.16974352  6.19180416
  6.19180504  6.19990777  6.26012735  6.55925559  6.55925914  6.57200966
  6.57201486  6.58508309  6.73065647  6.73065723  6.83017507  6.87788514
  6.8778864   6.90757756  7.23512803  7.25223961  7.25224526  7.27250993
  7.32734156  7.32734635  7.71470472  7.8488445   7.84884645  8.23273994
  8.23274344  8.32293036  8.32293464  8.34325526  8.42374057  8.55216357
  8.55216656  8.61965268  8.68573386  8.68573675  8.76231549  8.85392942
  8.8875782   8.88758187  9.02056937  9.1644772   9.16447742  9.23072504
  9.23100289  9.23100321  9.85680581 10.50258732 10.50258732 13.19824259]
E1 = -24.35493413422082  E_coul = 9.85897647659176
cycle= 1 E= -8.10013725654894  delta_E= -0.428  |g|= 0.159  |ddm|= 2.71
    CPU time for cycle= 1     39.57 sec, wall time      0.38 sec
  HOMO = -0.385756013199863  LUMO = 0.101488244670689
  mo_energy =
[-0.876081   -0.53122899 -0.53122762 -0.38575601  0.10148824  0.14163418
  0.14163479  0.20967998  0.20968035  0.32647368  0.34657363  0.34657403
  0.35561668  0.42097496  0.42097521  0.44763598  0.51915053  0.63506548
  0.63506616  0.7312029   0.75366553  0.75366726  0.84458186  0.84458401
  0.93419007  1.03649067  1.03649174  1.0506669   1.08459869  1.15370771
  1.17850903  1.17850912  1.20458661  1.20458664  1.23459076  1.2559389
  1.35685252  1.3568557   1.38717722  1.38717801  1.47987846  1.62700425
  1.62700613  1.94922346  2.1660908   2.16609506  2.18577755  2.18578165
  2.22059264  2.31205496  2.31205534  2.41669318  2.46860532  2.46860638
  2.47091383  2.49493589  2.51682361  2.51682381  2.55210919  2.70521355
  2.70915734  2.70915898  2.80718739  2.85567818  2.85567998  2.94124848
  3.03015131  3.03736966  3.03737078  3.08029136  3.13040664  3.13040872
  3.18453865  3.18454037  3.20895272  3.24031533  3.24031603  3.35381406
  3.41203547  3.41203569  3.68288176  3.76568419  3.76568584  4.07301525
  4.07301783  4.1075838   4.17975632  4.2533639   4.25336681  4.40348659
  4.53888802  4.53889106  6.15811155  6.15811349  6.17926593  6.20180078
  6.20180175  6.2107067   6.27616628  6.57652533  6.57653107  6.59391012
  6.5939128   6.61196345  6.75047528  6.7504761   6.85028169  6.89815834
  6.89815963  6.92367087  7.25683059  7.27497658  7.27498201  7.29465373
  7.34923418  7.34923912  7.74536568  7.86674408  7.86674604  8.24026816
  8.2402719   8.33184453  8.33184854  8.35025378  8.42589576  8.55079799
  8.55080117  8.62277516  8.69100618  8.69100873  8.77034467  8.85940086
  8.89817057  8.8981742   9.03500722  9.1793215   9.1793215   9.24177577
  9.24177639  9.24313838  9.87954445 10.52494546 10.52494565 13.23437929]
E1 = -24.435560629571974  E_coul = 9.925621082265524
cycle= 2 E= -8.11411914622633  delta_E= -0.014  |g|= 0.0492  |ddm|= 0.435
    CPU time for cycle= 2     73.14 sec, wall time      0.64 sec
  HOMO = -0.388853251003449  LUMO = 0.108749956957426
  mo_energy =
[-0.85867896 -0.51977382 -0.5197725  -0.38885325  0.10874996  0.14849212
  0.1484927   0.21326679  0.21326718  0.33254929  0.35643914  0.35643947
  0.36042911  0.42305949  0.42305974  0.45902719  0.52147233  0.64022061
  0.64022132  0.74490397  0.76280505  0.76280677  0.85524779  0.85524991
  0.94501001  1.03868464  1.03868564  1.05293768  1.10098542  1.16577752
  1.18479916  1.18479933  1.20970866  1.2097087   1.23420957  1.2596459
  1.36272862  1.36273181  1.39380144  1.39380226  1.48672456  1.63990273
  1.63990452  1.93983064  2.18801631  2.18802049  2.20509608  2.20510002
  2.2471144   2.32083359  2.32083378  2.43009219  2.48434102  2.48434206
  2.49345707  2.51277716  2.53730849  2.53730867  2.5748974   2.7236239
  2.72369286  2.72369446  2.82236094  2.87131772  2.87131951  2.948305
  3.04094482  3.05071457  3.05071551  3.09106791  3.13638447  3.13638646
  3.19156723  3.19156889  3.21124783  3.24802659  3.24802729  3.35963789
  3.41648981  3.41648999  3.69657659  3.78230935  3.78231083  4.08265132
  4.08265396  4.1180479   4.19048455  4.26661618  4.26661926  4.41964536
  4.55659447  4.55659763  6.19158256  6.1915845   6.21228603  6.23437844
  6.23437942  6.24301371  6.31065323  6.60699996  6.60700588  6.62553801
  6.62554053  6.64022341  6.7777017   6.77770264  6.88644347  6.93126285
  6.9312643   6.95976034  7.29087614  7.31208861  7.31209404  7.33069172
  7.38291047  7.38291563  7.75842472  7.89053471  7.89053667  8.2812909
  8.28129456  8.37172876  8.37173282  8.39257835  8.46693961  8.59243321
  8.59243627  8.66259673  8.73085646  8.73085902  8.8099684   8.89977805
  8.93904272  8.93904632  9.07588993  9.21988052  9.21988053  9.28282628
  9.28338534  9.28338591  9.9194377  10.56320464 10.56320476 13.24185196]
E1 = -24.438320036188756  E_coul = 9.926615919644949
cycle= 3 E= -8.11588371546369  delta_E= -0.00176  |g|= 0.0137  |ddm|= 0.156
    CPU time for cycle= 3     70.53 sec, wall time      0.56 sec
  HOMO = -0.386939789476026  LUMO = 0.108190138554706
  mo_energy =
[-0.85898826 -0.52228101 -0.52227969 -0.38693979  0.10819014  0.15020514
  0.15020571  0.21254403  0.2125444   0.33182144  0.35703572  0.35703605
  0.36187725  0.42451565  0.4245159   0.45842402  0.5219592   0.64041866
  0.64041937  0.74344397  0.76217412  0.76217584  0.85434802  0.85435014
  0.94392831  1.04018606  1.04018709  1.05450871  1.09866119  1.16463218
  1.18532772  1.18532789  1.21039365  1.2103937   1.2354707   1.26091939
  1.36307562  1.36307885  1.39361498  1.3936158   1.48685791  1.63983473
  1.63983652  1.94505053  2.18550972  2.18551394  2.20397395  2.2039779
  2.2444985   2.32073172  2.32073194  2.43102179  2.48477151  2.48477255
  2.49009453  2.5114861   2.53670202  2.53670219  2.57316279  2.72206079
  2.72378205  2.72378364  2.82229826  2.87092208  2.87092384  2.94865412
  3.04128459  3.05080646  3.05080745  3.09119043  3.13811779  3.1381198
  3.19256505  3.19256673  3.21275421  3.24773739  3.24773808  3.36112282
  3.41805706  3.41805725  3.69685535  3.78201258  3.78201408  4.0828403
  4.08284294  4.11816601  4.19082244  4.26597479  4.26597786  4.41985006
  4.55674468  4.55674783  6.18943522  6.18943716  6.21028442  6.23258834
  6.2325893   6.24171762  6.30852209  6.60599374  6.60599965  6.6244939
  6.62449647  6.63962888  6.77808533  6.77808626  6.88444424  6.93011257
  6.93011402  6.95774326  7.29009532  7.31050048  7.31050595  7.32963486
  7.38152095  7.38152606  7.76010065  7.89073856  7.89074053  8.28047266
  8.28047631  8.37105777  8.37106184  8.3910399   8.46558254  8.59149349
  8.59149654  8.66287162  8.73089801  8.73090056  8.81044876  8.89876278
  8.93803333  8.9380369   9.07495643  9.21920515  9.21920516  9.28211894
  9.28211951  9.28243     9.91942882 10.56294661 10.56294672 13.24162385]
E1 = -24.43856780748455  E_coul = 9.92669183797261
cycle= 4 E= -8.11605556843182  delta_E= -0.000172  |g|= 0.00278  |ddm|= 0.0553
    CPU time for cycle= 4     90.04 sec, wall time      0.80 sec
  HOMO = -0.387700996003831  LUMO = 0.107996103562015
  mo_energy =
[-0.85968018 -0.52287666 -0.52287533 -0.387701    0.1079961   0.14984233
  0.14984291  0.21231045  0.21231082  0.33158305  0.35655695  0.35655728
  0.36169806  0.4241659   0.42416616  0.4579753   0.52150573  0.64001886
  0.64001956  0.74303682  0.76192928  0.761931    0.85399608  0.8539982
  0.94364472  1.03968366  1.03968468  1.05410348  1.09831961  1.16416025
  1.18469737  1.18469753  1.20959507  1.20959512  1.23470728  1.26029426
  1.36264226  1.36264549  1.39292286  1.39292369  1.48629909  1.63928135
  1.63928315  1.94423774  2.18507906  2.18508329  2.20350096  2.20350491
  2.24395085  2.31979019  2.31979041  2.43044619  2.48416014  2.48416119
  2.48947457  2.51106133  2.53637136  2.53637153  2.57299625  2.7214447
  2.7233679   2.72336949  2.82177186  2.87051322  2.87051498  2.94747716
  3.04077554  3.05016661  3.05016759  3.09047095  3.13742856  3.13743057
  3.19167302  3.19167469  3.21160383  3.24648662  3.24648731  3.36046883
  3.41712175  3.41712194  3.69610674  3.78126892  3.78127043  4.08189968
  4.08190232  4.11735604  4.18980794  4.2650385   4.26504158  4.41893316
  4.55587665  4.55587982  6.18920981  6.18921176  6.21006326  6.23234817
  6.23234914  6.24143139  6.30818198  6.60557793  6.60558382  6.62385067
  6.62385325  6.63904013  6.77750958  6.77751052  6.88404162  6.92961616
  6.92961761  6.95743112  7.28954698  7.31013937  7.31014483  7.329175
  7.38098177  7.3809869   7.75923129  7.88994903  7.88995099  8.28039503
  8.28039869  8.37094416  8.37094823  8.39101791  8.46563619  8.59156026
  8.59156332  8.66281554  8.73078745  8.73078999  8.81023912  8.89869006
  8.93792518  8.93792877  9.07479657  9.21897188  9.21897189  9.28201085
  9.28201143  9.28222776  9.91905158 10.56241488 10.562415   13.23992296]
E1 = -24.438725647840354  E_coul = 9.92684247965955
cycle= 5 E= -8.11606276710069  delta_E= -7.2e-06  |g|= 0.000415  |ddm|= 0.0124
    CPU time for cycle= 5     72.07 sec, wall time      0.56 sec
  HOMO = -0.387536190110304  LUMO = 0.108012433771302
  mo_energy =
[-0.85951613 -0.52273906 -0.52273774 -0.38753619  0.10801243  0.14996264
  0.14996321  0.21233674  0.21233711  0.33162387  0.35669717  0.3566975
  0.36184323  0.4242734   0.42427366  0.45805457  0.52156986  0.64010473
  0.64010544  0.74307659  0.76197302  0.76197473  0.85406179  0.85406391
  0.94369785  1.03981567  1.03981669  1.05423123  1.09840235  1.16427021
  1.18483699  1.18483715  1.20978862  1.20978867  1.23480632  1.26050925
  1.36275456  1.36275779  1.39307996  1.39308078  1.48639738  1.63943846
  1.63944026  1.94451545  2.18516866  2.18517288  2.20360646  2.20361041
  2.24408192  2.31999841  2.31999863  2.43059253  2.48430688  2.48430793
  2.48967078  2.51112908  2.5364697   2.53646987  2.57306056  2.72161736
  2.72349953  2.72350113  2.82189076  2.8706453   2.87064706  2.94778551
  3.04091659  3.05033645  3.05033743  3.09067328  3.13762867  3.13763067
  3.191931    3.19193267  3.21181394  3.24675958  3.24676028  3.3607292
  3.4173738   3.41737399  3.69631107  3.78149893  3.78150044  4.08212635
  4.08212899  4.11761834  4.19003705  4.26530978  4.26531285  4.41919564
  4.55613881  4.55614197  6.18930333  6.18930528  6.210144    6.2324336
  6.23243457  6.2415258   6.30831764  6.60571388  6.60571978  6.62407462
  6.6240772   6.63930976  6.77770166  6.7777026   6.8842104   6.92979374
  6.92979519  6.95758571  7.2897313   7.31031637  7.31032184  7.32935847
  7.38119484  7.38119996  7.75959039  7.89022566  7.89022763  8.28050303
  8.28050669  8.37106545  8.37106952  8.39111595  8.46571991  8.59166352
  8.59166657  8.66293821  8.73091884  8.73092138  8.81038703  8.89881655
  8.93805666  8.93806024  9.07494117  9.21913522  9.21913523  9.28216033
  9.2821609   9.28239658  9.91927871 10.5626719  10.56267202 13.24044619]
E1 = -24.438432295718304  E_coul = 9.92654897634089
cycle= 6 E= -8.1160629182973  delta_E= -1.51e-07  |g|= 7.82e-05  |ddm|= 0.00176
    CPU time for cycle= 6    105.57 sec, wall time      0.86 sec
  HOMO = -0.387574959842799  LUMO = 0.108004077249188
  mo_energy =
[-0.85955721 -0.52276256 -0.52276124 -0.38757496  0.10800408  0.14994583
  0.14994641  0.21233391  0.21233428  0.33160764  0.356675    0.35667533
  0.36182239  0.42425769  0.42425795  0.45803456  0.52155644  0.64009026
  0.64009097  0.74307122  0.76196171  0.76196343  0.85405354  0.85405566
  0.94368403  1.03979505  1.03979607  1.05420767  1.09838517  1.16424974
  1.18481216  1.18481232  1.20975353  1.20975358  1.2347869   1.26046873
  1.3627326   1.36273582  1.39305169  1.39305251  1.48637752  1.63941516
  1.63941695  1.94446803  2.18515028  2.18515451  2.20359113  2.20359508
  2.24406316  2.31996043  2.31996065  2.43057037  2.4842882   2.48428924
  2.48963521  2.51111676  2.536458    2.53645817  2.57304994  2.72159003
  2.72348172  2.72348331  2.82187698  2.87062567  2.87062743  2.94772892
  3.04089194  3.05031219  3.05031317  3.09064174  3.13759715  3.13759915
  3.19188721  3.19188888  3.21177534  3.24670834  3.24670903  3.36068645
  3.41732988  3.41733007  3.69627874  3.781463    3.7814645   4.0820876
  4.08209024  4.11757461  4.18999975  4.26526304  4.26526611  4.41915428
  4.55610073  4.55610389  6.18929496  6.18929691  6.21013715  6.23242634
  6.23242731  6.24151861  6.30830353  6.6056994   6.60570529  6.62404721
  6.62404979  6.63927499  6.77768154  6.77768248  6.88418927  6.92977417
  6.92977562  6.95757272  7.28971403  7.31029737  7.31030284  7.32933859
  7.38117137  7.3811765   7.75953878  7.89019023  7.89019219  8.28050449
  8.28050815  8.37106362  8.37106769  8.39111594  8.46572243  8.5916696
  8.59167266  8.66294329  8.73092001  8.73092255  8.81038891  8.89881743
  8.93805298  8.93805656  9.07493391  9.21912907  9.21912908  9.28215456
  9.28215514  9.28239003  9.91926152 10.56264882 10.56264895 13.24035589]
E1 = -24.438476389249935  E_coul = 9.92659306556709
cycle= 7 E= -8.11606292260273  delta_E= -4.31e-09  |g|= 1.46e-05  |ddm|= 0.000377
    CPU time for cycle= 7     59.46 sec, wall time      0.51 sec
  HOMO = -0.387572681025278  LUMO = 0.108004114830701
  mo_energy =
[-0.85955463 -0.5227597  -0.52275838 -0.38757268  0.10800411  0.14994683
  0.14994741  0.21233376  0.21233413  0.33160818  0.35667639  0.35667672
  0.36182549  0.42425928  0.42425953  0.45803569  0.5215574   0.64009146
  0.64009217  0.7430713   0.76196197  0.76196369  0.85405371  0.85405584
  0.94368416  1.03979689  1.03979791  1.05421038  1.09838558  1.16425072
  1.184814    1.18481416  1.2097562   1.20975626  1.23478837  1.26047235
  1.36273474  1.36273797  1.39305352  1.39305435  1.48637891  1.63941658
  1.63941837  1.9444739   2.18515049  2.18515471  2.20359161  2.20359556
  2.24406367  2.31996277  2.31996299  2.43057147  2.48428909  2.48429013
  2.48963667  2.51111663  2.53645816  2.53645833  2.5730497   2.72159122
  2.72348303  2.72348463  2.82187761  2.87062654  2.8706283   2.947733
  3.04089379  3.05031391  3.05031489  3.090644    3.13760033  3.13760234
  3.19189099  3.19189266  3.21177815  3.24671117  3.24671186  3.36069117
  3.41733383  3.41733403  3.69628087  3.78146497  3.78146647  4.08209026
  4.08209291  4.11757819  4.1900023   4.26526611  4.26526918  4.41915655
  4.5561033   4.55610646  6.18929439  6.18929634  6.21013642  6.23242563
  6.2324266   6.24151777  6.30830329  6.60569908  6.60570497  6.62404782
  6.62405039  6.63927701  6.77768225  6.77768319  6.88418874  6.92977419
  6.92977565  6.9575731   7.28971412  7.31029717  7.31030263  7.32933813
  7.38117221  7.38117734  7.75954331  7.89019191  7.89019387  8.28050331
  8.28050696  8.37106262  8.37106669  8.39111493  8.46572104  8.59166852
  8.59167158  8.66294174  8.73091862  8.73092117  8.81038789  8.89881677
  8.93805197  8.93805555  9.07493293  9.2191286   9.21912861  9.28215386
  9.28215443  9.28238932  9.91926197 10.56264927 10.5626494  13.24036147]
E1 = -24.438474897992602  E_coul = 9.926591574141092
cycle= 8 E= -8.11606292277139  delta_E= -1.69e-10  |g|= 1.46e-06  |ddm|= 8.67e-05
    CPU time for cycle= 8     79.25 sec, wall time      0.63 sec
  HOMO = -0.387572847728917  LUMO = 0.108004252536048
  mo_energy =
[-0.85955455 -0.5227599  -0.52275858 -0.38757285  0.10800425  0.14994697
  0.14994755  0.21233389  0.21233426  0.33160824  0.35667643  0.35667676
  0.36182553  0.4242593   0.42425955  0.45803582  0.52155743  0.64009153
  0.64009223  0.74307151  0.76196207  0.76196379  0.85405386  0.85405599
  0.9436843   1.03979691  1.03979793  1.05421036  1.0983858   1.16425088
  1.18481405  1.18481421  1.20975624  1.20975629  1.23478833  1.26047235
  1.36273479  1.36273802  1.3930536   1.39305443  1.48637897  1.63941673
  1.63941852  1.94447367  2.18515076  2.18515498  2.20359185  2.2035958
  2.24406402  2.31996285  2.31996307  2.43057161  2.48428927  2.48429032
  2.48963696  2.51111687  2.53645841  2.53645858  2.57304999  2.72159143
  2.72348321  2.7234848   2.82187781  2.87062672  2.87062848  2.94773304
  3.04089389  3.05031407  3.05031505  3.09064411  3.13760036  3.13760237
  3.19189104  3.1918927   3.21177814  3.24671124  3.24671194  3.3606912
  3.41733383  3.41733403  3.69628101  3.78146516  3.78146666  4.08209034
  4.08209299  4.11757827  4.19000242  4.26526625  4.26526932  4.41915671
  4.55610348  4.55610664  6.18929479  6.18929674  6.21013682  6.23242602
  6.23242699  6.24151815  6.30830368  6.60569943  6.60570532  6.62404818
  6.62405076  6.63927729  6.77768253  6.77768347  6.88418912  6.92977456
  6.92977602  6.95757352  7.28971451  7.31029755  7.31030301  7.32933851
  7.3811726   7.38117773  7.75954343  7.89019218  7.89019414  8.28050376
  8.28050742  8.37106306  8.37106712  8.39111541  8.46572151  8.59166901
  8.59167206  8.66294217  8.73091905  8.7309216   8.81038833  8.89881724
  8.93805241  8.93805599  9.07493335  9.21912903  9.21912904  9.28215431
  9.28215489  9.28238975  9.91926237 10.56264967 10.56264979 13.24036159]
E1 = -24.438474713488947  E_coul = 9.92659138963626
Extra cycle  E= -8.11606292277257  delta_E= -1.18e-12  |g|= 4.11e-07  |ddm|= 5.23e-06
    CPU time for scf_cycle    815.53 sec, wall time      6.90 sec
    CPU time for SCF    815.99 sec, wall time      6.91 sec
converged SCF energy = -8.11606292277257
