#INFO: **** input file is /home/nkousuke/lustre/toBeSync/turboRVB/05turbo-genius-development/turbogenius_paper/04data/sanity_checks/03pyscf_HF_turbo_VMC_via_trexio/00open_boundary/results/O2/pyscf-HF-workflow/run.py ****

from pyscf_wrapper import Pyscf_wrapper

# input variables
pyscf_chkfile="pyscf.chk"
structure_file="O2.xyz"

# input variables
omp_num_threads=128
charge=0
spin=2
basis="ccecp-ccpvqz"
ecp="ccecp"
scf_method="HF"
dft_xc="NA"
solver_newton=False
MP2_flag=False
CCSD_flag=False
pyscf_output="out.pyscf"
twist_average=False
exp_to_discard=0.0
kpt=[0.0, 0.0, 0.0]
kpt_grid=[1, 1, 1]
smearing_method="fermi"
smearing_sigma=0.0

pyscf_calc=Pyscf_wrapper(
                        structure_file=structure_file,
                        chkfile=pyscf_chkfile,
                        )

pyscf_calc.run_pyscf(
                  omp_num_threads=omp_num_threads,
                  charge=charge,
                  spin=spin,
                  basis=basis,
                  ecp=ecp,
                  scf_method=scf_method,
                  dft_xc=dft_xc,
                  solver_newton=solver_newton,
                  MP2_flag=MP2_flag,
                  CCSD_flag=CCSD_flag,
                  pyscf_output=pyscf_output,
                  twist_average=twist_average,
                  exp_to_discard=exp_to_discard,
                  kpt=kpt,
                  kpt_grid=kpt_grid,
                  smearing_method=smearing_method,
                  smearing_sigma=smearing_sigma
                  )
                #INFO: ******************** input file end ********************


System: uname_result(system='Linux', node='spcc-275', release='5.4.0-66-generic', version='#74-Ubuntu SMP Wed Jan 27 22:54:38 UTC 2021', machine='x86_64', processor='x86_64')  Threads 128
Python 3.7.3 (default, Mar 27 2019, 22:11:17) 
[GCC 7.3.0]
numpy 1.20.1  scipy 1.7.3
Date: Mon Dec 19 18:10:15 2022
PySCF version 2.0.1
PySCF path  /home/nkousuke/application/anaconda3/lib/python3.7/site-packages/pyscf

[CONFIG] conf_file /home/nkousuke/.pyscf_conf.py
[INPUT] verbose = 5
[INPUT] max_memory = 505169.19921875 
[INPUT] num. atoms = 2
[INPUT] num. electrons = 12
[INPUT] charge = 0
[INPUT] spin (= nelec alpha-beta = 2S) = 2
[INPUT] symmetry False subgroup None
[INPUT] Mole.unit = A
[INPUT]  1 O      0.000000000000   0.000000000000   0.603850000000 AA    0.000000000000   0.000000000000   1.141111120319 Bohr
[INPUT]  2 O      0.000000000000   0.000000000000  -0.603850000000 AA    0.000000000000   0.000000000000  -1.141111120319 Bohr
[INPUT] ---------------- BASIS SET ---------------- 
[INPUT] l, kappa, [nprim/nctr], expnt,             c_1 c_2 ...
[INPUT] O
[INPUT] 0    0    [9    /1   ]  54.775216         -0.0012444
                                25.616801         0.010733
                                11.980245         0.0018889
                                6.992317          -0.1742537
                                2.620277          0.0017622
                                1.225429          0.3161846
                                0.577797          0.4512023
                                0.268022          0.3121534
                                0.125346          0.0511167
[INPUT] 0    0    [1    /1   ]  1.351771             1
[INPUT] 0    0    [1    /1   ]  0.843157             1
[INPUT] 0    0    [1    /1   ]  0.22438              1
[INPUT] 1    0    [9    /1   ]  22.217266         0.0104866
                                10.74755          0.0366435
                                5.315785          0.0803674
                                2.660761          0.162701
                                1.331816          0.2377791
                                0.678626          0.2811422
                                0.333673          0.2643189
                                0.167017          0.1466014
                                0.083598          0.0458145
[INPUT] 1    0    [1    /1   ]  1.106737             1
[INPUT] 1    0    [1    /1   ]  0.452364             1
[INPUT] 1    0    [1    /1   ]  0.148562             1
[INPUT] 2    0    [1    /1   ]  4.008867             1
[INPUT] 2    0    [1    /1   ]  1.344331             1
[INPUT] 2    0    [1    /1   ]  0.455711             1
[INPUT] 3    0    [1    /1   ]  2.763115             1
[INPUT] 3    0    [1    /1   ]  0.876289             1
[INPUT] 4    0    [1    /1   ]  1.759081             1

nuclear repulsion = 15.7740991911236
number of shells = 28
number of NR pGTOs = 172
number of NR cGTOs = 108
basis = ccecp-ccpvqz
ecp = ccecp
CPU time:         6.70


******** <class 'pyscf.scf.rohf.ROHF'> ********
method = ROHF-RHF
initial guess = minao
damping factor = 0
level_shift factor = 0
DIIS = <class 'pyscf.scf.diis.CDIIS'>
diis_start_cycle = 1
diis_space = 8
SCF conv_tol = 1e-09
SCF conv_tol_grad = None
SCF max_cycles = 200
direct_scf = True
direct_scf_tol = 1e-13
chkfile to save SCF result = pyscf.chk
max_memory 505169 MB (current use 106 MB)
num. doubly occ = 5  num. singly occ = 2
Set gradient conv threshold to 3.16228e-05
E1 = -83.23188646302017  Ecoul = 36.23017289760689
init E= -31.2276143742897
cond(S) = 8414.286590890144
    CPU time for initialize scf    129.80 sec, wall time      1.20 sec
  HOMO = -0.231807320700338  LUMO = 0.21755945297849
                  Roothaan           | alpha              | beta
  Highest 2-occ = -0.644598523733032 | -0.644598523733033 | -0.644598523733033
  Lowest 0-occ =    0.21755945297849 |  0.217559452978503 |  0.217559452978503
  1-occ =         -0.231807320700338 | -0.231807320700335 | -0.231807320700335
  1-occ =         -0.231807320700338 | -0.231807320700335 | -0.231807320700335
  Roothaan mo_energy =
[-1.9202824  -1.09901258 -0.65237771 -0.65237771 -0.64459852 -0.23180732
 -0.23180732  0.21755945  0.42701269  0.42701269  0.45295983  0.46172469
  0.51995684  0.51995684  0.69506901  1.02483507  1.05793315  1.05793315
  1.24442332  1.24442332  1.43994809  1.43994809  1.63780814  1.65535946
  1.7727215   1.7727215   2.01340908  2.01340908  2.31213649  2.31213649
  2.40397857  2.6973253   3.17143888  3.17143888  3.21536846  3.21536846
  3.3822047   3.3822047   3.62427256  3.62427256  3.77964103  4.05327207
  4.07185117  4.07185117  4.21111782  4.21111782  4.23272437  4.23272437
  4.32681093  4.32681093  4.496331    4.496331    4.60822244  4.74197395
  5.24618179  5.47597215  5.47597215  6.8099455   7.00471339  7.00471339
  7.2062376   7.2062376   7.39336368  8.22953048  8.22953048  8.34709913
  8.34709913  8.62859613  8.71545575  8.71545575  8.87553604  8.87553604
  8.90557341  8.90557341  9.16535878  9.35374634  9.35374634 10.53415588
 10.53415588 10.65001473 10.77903439 10.77903439 11.61328463 11.61328463
 11.72561836 11.72561836 11.76711988 11.76711988 12.07217257 12.07217257
 12.31119148 12.31119148 12.35725928 12.41224688 12.51717675 12.51717675
 12.8244383  12.8244383  12.88103987 12.88103987 13.02642935 13.02642935
 14.11146429 14.8150553  14.8150553  16.38106466 32.68384649 32.83595705]
E1 = -82.81976548602039  Ecoul = 35.64902222477459
cycle= 1 E= -31.3966440701222  delta_E= -0.169  |g|= 0.322  |ddm|= 1.73
    CPU time for cycle= 1     57.24 sec, wall time      0.51 sec
  HOMO = -0.268732718773323  LUMO = 0.260557056459522
                  Roothaan           | alpha              | beta
  Highest 2-occ = -0.759938696577937 | -0.819372577097382 | -0.648225413228003
  Lowest 0-occ =   0.260557056459522 |  0.248959297300424 |  0.272154815618613
  1-occ =         -0.268732718773324 | -0.570893160899371 | 0.0539650347136786
  1-occ =         -0.268732718773323 |  -0.57089316089937 | 0.0539650347136794
  Roothaan mo_energy =
[-1.74537333 -1.15436751 -0.78360473 -0.7599387  -0.7599387  -0.26873272
 -0.26873272  0.26055706  0.41314578  0.41314578  0.4603643   0.52288421
  0.52288421  0.52360198  0.68399935  1.02424731  1.03271944  1.03271944
  1.23123812  1.23123812  1.43075814  1.43075814  1.64292492  1.65563982
  1.77920975  1.77920975  1.99074426  1.99074426  2.2919827   2.2919827
  2.37615398  2.71013591  3.13876646  3.13876646  3.19076953  3.19076953
  3.32492885  3.32492885  3.61027201  3.61027201  3.74572861  4.04993004
  4.04993004  4.05488504  4.17863479  4.17863479  4.23741514  4.23741514
  4.3295531   4.3295531   4.50018603  4.50018603  4.60041595  4.71234718
  5.22610941  5.45914489  5.45914489  6.81934187  6.97419425  6.97419425
  7.17392076  7.17392076  7.37270012  8.19131476  8.19131476  8.32128335
  8.32128335  8.58335656  8.6936604   8.6936604   8.8427312   8.8427312
  8.85513496  8.85513496  9.08580734  9.32590302  9.32590302 10.4890427
 10.4890427  10.66193733 10.76462012 10.76462012 11.58524374 11.58524374
 11.69565531 11.69565531 11.74546925 11.74546925 12.06433204 12.06433204
 12.27666068 12.27666068 12.28498282 12.43266259 12.47447544 12.47447544
 12.79479587 12.79479587 12.87520229 12.87520229 12.99399971 12.99399971
 14.05498014 14.77619217 14.77619217 16.3287967  32.64081639 32.79862785]
E1 = -83.72548190739948  Ecoul = 36.53359172043467
cycle= 2 E= -31.4177909958412  delta_E= -0.0211  |g|= 0.124  |ddm|= 0.431
    CPU time for cycle= 2    120.71 sec, wall time      0.96 sec
  HOMO = -0.206014915619439  LUMO = 0.271856857677584
                  Roothaan           | alpha              | beta
  Highest 2-occ = -0.701302505067651 | -0.748208914651327 | -0.568386043156743
  Lowest 0-occ =   0.271856857677584 |  0.264904338403431 |  0.283788189935715
  1-occ =         -0.206014915619443 | -0.512696839295701 |  0.130855468092729
  1-occ =         -0.206014915619439 | -0.512696839295703 |  0.130855468092727
  Roothaan mo_energy =
[-1.66265899 -1.10651028 -0.7289775  -0.70130251 -0.70130251 -0.20601492
 -0.20601492  0.27185686  0.4279056   0.4279056   0.46660348  0.52498261
  0.52498261  0.5912564   0.71450037  1.03777012  1.06700566  1.06700566
  1.26497378  1.26497378  1.45620527  1.45620527  1.67366302  1.6780978
  1.79712976  1.79712976  2.03551258  2.03551258  2.33071796  2.33071796
  2.42648398  2.72957621  3.18580203  3.18580203  3.23225974  3.23225974
  3.39012543  3.39012543  3.64699162  3.64699162  3.81208285  4.08585061
  4.1057084   4.1057084   4.23961252  4.23961252  4.27686031  4.27686031
  4.36039494  4.36039494  4.53828772  4.53828772  4.65171579  4.78160384
  5.28454797  5.50621035  5.50621035  6.866597    7.05347768  7.05347768
  7.25433056  7.25433056  7.44541962  8.25731699  8.25731699  8.38045571
  8.38045571  8.67365704  8.75093915  8.75093915  8.91194967  8.91194967
  8.9252135   8.9252135   9.17701505  9.38682395  9.38682395 10.56151183
 10.56151183 10.71129765 10.82825608 10.82825608 11.6647608  11.6647608
 11.77496691 11.77496691 11.82196418 11.82196418 12.13202447 12.13202447
 12.35755333 12.35755333 12.38585955 12.49250945 12.55925336 12.55925336
 12.88462188 12.88462188 12.95136606 12.95136606 13.08461224 13.08461224
 14.15016126 14.8646051  14.8646051  16.4284719  32.75615304 32.91110725]
E1 = -83.45695924477096  Ecoul = 36.262489070326886
cycle= 3 E= -31.4203709833204  delta_E= -0.00258  |g|= 0.013  |ddm|= 0.129
    CPU time for cycle= 3     87.34 sec, wall time      0.69 sec
  HOMO = -0.212800029646982  LUMO = 0.27100983897385
                  Roothaan           | alpha              | beta
  Highest 2-occ = -0.707070550215547 | -0.770956465713434 | -0.591450794225056
  Lowest 0-occ =    0.27100983897385 |  0.261384334944816 |  0.280519080337238
  1-occ =          -0.21280002964699 | -0.532875139336211 |  0.107621560110221
  1-occ =         -0.212800029646982 | -0.532875139336208 |  0.107621560110224
  Roothaan mo_energy =
[-1.66928087 -1.11180125 -0.7363596  -0.70707055 -0.70707055 -0.21280003
 -0.21280003  0.27100984  0.42701576  0.42701576  0.46574402  0.52391602
  0.52391602  0.58521747  0.71267535  1.03668747  1.06492093  1.06492093
  1.26227988  1.26227988  1.45441353  1.45441353  1.67078691  1.67442871
  1.79482881  1.79482881  2.03102519  2.03102519  2.32730293  2.32730293
  2.42279064  2.72632342  3.18286938  3.18286938  3.22970953  3.22970953
  3.38532484  3.38532484  3.64444061  3.64444061  3.80527931  4.08246521
  4.0999253   4.0999253   4.23406211  4.23406211  4.27179273  4.27179273
  4.35715197  4.35715197  4.53352974  4.53352974  4.64530877  4.77465262
  5.27862958  5.50181406  5.50181406  6.85890225  7.04315958  7.04315958
  7.24389138  7.24389138  7.43575536  8.252084    8.252084    8.37540019
  8.37540019  8.66391094  8.74600446  8.74600446  8.90698838  8.90698838
  8.9191844   8.9191844   9.17086473  9.38157288  9.38157288 10.55563147
 10.55563147 10.70374426 10.82068185 10.82068185 11.65560285 11.65560285
 11.76571737 11.76571737 11.81282494 11.81282494 12.12289985 12.12289985
 12.34820599 12.34820599 12.37616162 12.48144708 12.54984468 12.54984468
 12.87263613 12.87263613 12.93956242 12.93956242 13.07274025 13.07274025
 14.13973559 14.85380527 14.85380527 16.41690613 32.73883754 32.89379802]
E1 = -83.48687614390873  Ecoul = 36.292352516825005
cycle= 4 E= -31.4204244359601  delta_E= -5.35e-05  |g|= 0.00412  |ddm|= 0.0252
    CPU time for cycle= 4     96.03 sec, wall time      0.76 sec
  HOMO = -0.210875183201096  LUMO = 0.271429548121576
                  Roothaan           | alpha              | beta
  Highest 2-occ = -0.705533729086167 |  -0.76852727345401 | -0.588837906278303
  Lowest 0-occ =   0.271429548121576 |  0.261987284843076 |  0.281033233207798
  1-occ =         -0.210875183201097 | -0.530979255510377 |  0.110296771508765
  1-occ =         -0.210875183201096 | -0.530979255510378 |  0.110296771508767
  Roothaan mo_energy =
[-1.6673872  -1.1098424  -0.73461333 -0.70553373 -0.70553373 -0.21087518
 -0.21087518  0.27142955  0.42727537  0.42727537  0.46597672  0.52396323
  0.52396323  0.58724183  0.71340548  1.03720219  1.065521    1.065521
  1.26315607  1.26315607  1.45503344  1.45503344  1.6715989   1.67549545
  1.79556818  1.79556818  2.03219602  2.03219602  2.32814507  2.32814507
  2.42384952  2.72739918  3.18376955  3.18376955  3.23047041  3.23047041
  3.38661726  3.38661726  3.64525191  3.64525191  3.80710047  4.08349388
  4.10149306  4.10149306  4.23555868  4.23555868  4.27326936  4.27326936
  4.35816664  4.35816664  4.53491858  4.53491858  4.64716491  4.77657741
  5.28035536  5.50310376  5.50310376  6.86107096  7.04583852  7.04583852
  7.24656612  7.24656612  7.43835104  8.25358986  8.25358986  8.3768438
  8.3768438   8.66647159  8.74739261  8.74739261  8.90838722  8.90838722
  8.92089548  8.92089548  9.17266713  9.38303646  9.38303646 10.55726504
 10.55726504 10.70580454 10.82276477 10.82276477 11.65798921 11.65798921
 11.76815073 11.76815073 11.81522383 11.81522383 12.12532094 12.12532094
 12.35071527 12.35071527 12.37881787 12.48428217 12.55234706 12.55234706
 12.87570673 12.87570673 12.9425992  12.9425992  13.07577977 13.07577977
 14.14255801 14.8566254  14.8566254  16.42003036 32.74334063 32.89828822]
E1 = -83.47796305266505  Ecoul = 36.28343576198215
cycle= 5 E= -31.4204280995593  delta_E= -3.66e-06  |g|= 0.000361  |ddm|= 0.00549
    CPU time for cycle= 5     89.70 sec, wall time      0.71 sec
  HOMO = -0.211056088578307  LUMO = 0.271399475988417
                  Roothaan           | alpha              | beta
  Highest 2-occ = -0.705677113636644 | -0.769341938404789 | -0.589585257019092
  Lowest 0-occ =   0.271399475988417 |  0.261863402404814 |  0.280919396460291
  1-occ =         -0.211056088578309 | -0.531670017887403 |  0.109466160058112
  1-occ =         -0.211056088578307 | -0.531670017887404 |  0.109466160058111
  Roothaan mo_energy =
[-1.66754788 -1.10997661 -0.73478444 -0.70567711 -0.70567711 -0.21105609
 -0.21105609  0.27139948  0.4272254   0.4272254   0.46593856  0.52398078
  0.52398078  0.58708075  0.71330998  1.03714191  1.06541695  1.06541695
  1.2630513   1.2630513   1.45493284  1.45493284  1.67150782  1.67538643
  1.79548176  1.79548176  2.03206814  2.03206814  2.32803105  2.32803105
  2.42370836  2.72730171  3.18363334  3.18363334  3.23033657  3.23033657
  3.38646707  3.38646707  3.64512039  3.64512039  3.80692945  4.08336032
  4.10132636  4.10132636  4.23539604  4.23539604  4.27312657  4.27312657
  4.35803341  4.35803341  4.53476513  4.53476513  4.64700751  4.77641017
  5.28020211  5.50295658  5.50295658  6.86090475  7.04565497  7.04565497
  7.24638087  7.24638087  7.43816979  8.25341214  8.25341214  8.37666437
  8.37666437  8.66627501  8.74721233  8.74721233  8.90820678  8.90820678
  8.9207151   8.9207151   9.17249341  9.38285409  9.38285409 10.557082
 10.557082   10.70561726 10.82258088 10.82258088 11.65777812 11.65777812
 11.76794432 11.76794432 11.81501355 11.81501355 12.12511679 12.12511679
 12.35051966 12.35051966 12.37863088 12.48407292 12.55214882 12.55214882
 12.87549118 12.87549118 12.94238618 12.94238618 13.07556498 13.07556498
 14.14236698 14.85642099 14.85642099 16.41983207 32.74312368 32.89807044]
E1 = -83.47837207305997  Ecoul = 36.28384475730306
cycle= 6 E= -31.4204281246333  delta_E= -2.51e-08  |g|= 3.39e-05  |ddm|= 0.000389
    CPU time for cycle= 6     35.34 sec, wall time      0.29 sec
  HOMO = -0.211063358039912  LUMO = 0.271399975289837
                  Roothaan           | alpha              | beta
  Highest 2-occ =  -0.70568172684062 | -0.769313778304622 |  -0.58955444943039
  Lowest 0-occ =   0.271399975289837 |    0.2618711682808 |  0.280927234177949
  1-occ =         -0.211063358039917 | -0.531633070938801 |  0.109499753026856
  1-occ =         -0.211063358039912 | -0.531633070938801 |  0.109499753026856
  Roothaan mo_energy =
[-1.66755425 -1.10998062 -0.73479445 -0.70568173 -0.70568173 -0.21106336
 -0.21106336  0.27139998  0.42722544  0.42722544  0.46593803  0.52398285
  0.52398285  0.58707478  0.71331032  1.03714124  1.06541681  1.06541681
  1.26305126  1.26305126  1.45493214  1.45493214  1.67150727  1.67538367
  1.79548379  1.79548379  2.03206673  2.03206673  2.3280322   2.3280322
  2.42370604  2.72730011  3.18363279  3.18363279  3.23033637  3.23033637
  3.38646427  3.38646427  3.64512021  3.64512021  3.80692548  4.0833604
  4.10132326  4.10132326  4.23539301  4.23539301  4.27312513  4.27312513
  4.35803355  4.35803355  4.53476431  4.53476431  4.64700398  4.77640506
  5.28019904  5.50295509  5.50295509  6.86090045  7.04564649  7.04564649
  7.24637247  7.24637247  7.43816149  8.25341043  8.25341043  8.37666282
  8.37666282  8.6662673   8.74721042  8.74721042  8.90820485  8.90820485
  8.92071188  8.92071188  9.17248952  9.38285224  9.38285224 10.55707935
 10.55707935 10.70561561 10.82257803 10.82257803 11.65777102 11.65777102
 11.76793834 11.76793834 11.81500671 11.81500671 12.12511192 12.12511192
 12.35051419 12.35051419 12.37862304 12.48406844 12.55214256 12.55214256
 12.8754807  12.8754807  12.94237873 12.94237873 13.07555447 13.07555447
 14.14235899 14.85641287 14.85641287 16.41982353 32.74310477 32.89805182]
E1 = -83.47841480628111  Ecoul = 36.28388749024675
cycle= 7 E= -31.4204281249107  delta_E= -2.77e-10  |g|= 3.09e-06  |ddm|= 4.42e-05
    CPU time for cycle= 7    128.19 sec, wall time      1.01 sec
  HOMO = -0.211062655326992  LUMO = 0.27140007720559
                  Roothaan           | alpha              | beta
  Highest 2-occ = -0.705681272731225 | -0.769311487208722 | -0.589551125307541
  Lowest 0-occ =    0.27140007720559 |  0.261872091184397 |  0.280928063226802
  1-occ =         -0.211062655326995 | -0.531628842898582 |  0.109503402904727
  1-occ =         -0.211062655326992 | -0.531628842898583 |  0.109503402904727
  Roothaan mo_energy =
[-1.66755397 -1.10998017 -0.73479439 -0.70568127 -0.70568127 -0.21106266
 -0.21106266  0.27140008  0.4272255   0.4272255   0.46593797  0.52398293
  0.52398293  0.58707503  0.7133103   1.03714128  1.06541686  1.06541686
  1.26305142  1.26305142  1.45493228  1.45493228  1.67150738  1.67538378
  1.79548391  1.79548391  2.03206701  2.03206701  2.32803237  2.32803237
  2.42370612  2.72730034  3.18363283  3.18363283  3.23033645  3.23033645
  3.38646425  3.38646425  3.64512035  3.64512035  3.80692572  4.08336068
  4.10132359  4.10132359  4.23539321  4.23539321  4.27312551  4.27312551
  4.35803384  4.35803384  4.53476473  4.53476473  4.64700443  4.7764053
  5.28019932  5.50295526  5.50295526  6.86090107  7.04564711  7.04564711
  7.24637309  7.24637309  7.43816208  8.25341057  8.25341057  8.37666302
  8.37666302  8.66626775  8.74721059  8.74721059  8.90820504  8.90820504
  8.92071192  8.92071192  9.17248947  9.38285243  9.38285243 10.55707948
 10.55707948 10.70561635 10.82257857 10.82257857 11.65777141 11.65777141
 11.76793882 11.76793882 11.81500714 11.81500714 12.12511256 12.12511256
 12.35051468 12.35051468 12.3786233  12.48406954 12.55214301 12.55214301
 12.87548136 12.87548136 12.94237967 12.94237967 13.0755551  13.0755551
 14.14235946 14.85641345 14.85641345 16.41982417 32.74310593 32.89805303]
E1 = -83.47841308774238  Ecoul = 36.28388577170497
Extra cycle  E= -31.4204281249138  delta_E= -3.05e-12  |g|= 9.63e-07  |ddm|= 4.74e-06
    CPU time for scf_cycle    837.70 sec, wall time      6.89 sec
    CPU time for SCF    837.71 sec, wall time      6.89 sec
converged SCF energy = -31.4204281249138
