#INFO: **** input file is /home/nkousuke/lustre/toBeSync/turboRVB/05turbo-genius-development/turbogenius_paper/04data/sanity_checks/03pyscf_HF_turbo_VMC_via_trexio/00open_boundary/results/Mn/pyscf-HF-workflow/run.py ****

from pyscf_wrapper import Pyscf_wrapper

# input variables
pyscf_chkfile="pyscf.chk"
structure_file="Mn.xyz"

# input variables
omp_num_threads=128
charge=0
spin=5
basis="ccecp-ccpvdz"
ecp="ccecp"
scf_method="HF"
dft_xc="NA"
solver_newton=False
MP2_flag=False
CCSD_flag=False
pyscf_output="out.pyscf"
twist_average=False
exp_to_discard=0.0
kpt=[0.0, 0.0, 0.0]
kpt_grid=[1, 1, 1]
smearing_method="fermi"
smearing_sigma=0.0

pyscf_calc=Pyscf_wrapper(
                        structure_file=structure_file,
                        chkfile=pyscf_chkfile,
                        )

pyscf_calc.run_pyscf(
                  omp_num_threads=omp_num_threads,
                  charge=charge,
                  spin=spin,
                  basis=basis,
                  ecp=ecp,
                  scf_method=scf_method,
                  dft_xc=dft_xc,
                  solver_newton=solver_newton,
                  MP2_flag=MP2_flag,
                  CCSD_flag=CCSD_flag,
                  pyscf_output=pyscf_output,
                  twist_average=twist_average,
                  exp_to_discard=exp_to_discard,
                  kpt=kpt,
                  kpt_grid=kpt_grid,
                  smearing_method=smearing_method,
                  smearing_sigma=smearing_sigma
                  )
                #INFO: ******************** input file end ********************


System: uname_result(system='Linux', node='spcc-073', release='5.4.0-66-generic', version='#74-Ubuntu SMP Wed Jan 27 22:54:38 UTC 2021', machine='x86_64', processor='x86_64')  Threads 128
Python 3.7.3 (default, Mar 27 2019, 22:11:17) 
[GCC 7.3.0]
numpy 1.20.1  scipy 1.7.3
Date: Mon Dec 19 21:08:17 2022
PySCF version 2.0.1
PySCF path  /home/nkousuke/application/anaconda3/lib/python3.7/site-packages/pyscf

[CONFIG] conf_file /home/nkousuke/.pyscf_conf.py
[INPUT] verbose = 5
[INPUT] max_memory = 506352.4296875 
[INPUT] num. atoms = 1
[INPUT] num. electrons = 15
[INPUT] charge = 0
[INPUT] spin (= nelec alpha-beta = 2S) = 5
[INPUT] symmetry False subgroup None
[INPUT] Mole.unit = A
[INPUT]  1 Mn     0.000000000000   0.000000000000   0.000000000000 AA    0.000000000000   0.000000000000   0.000000000000 Bohr
[INPUT] ---------------- BASIS SET ---------------- 
[INPUT] l, kappa, [nprim/nctr], expnt,             c_1 c_2 ...
[INPUT] Mn
[INPUT] 0    0    [13   /1   ]  76.008334         0.000993
                                39.277974         -0.014796
                                20.405805         0.12071
                                12.21868          -0.124001
                                7.18269           -0.3202
                                3.85078           -0.105622
                                2.142489          0.472721
                                1.049631          0.620387
                                0.508682          0.204553
                                0.192243          0.005924
                                0.108899          -9.7e-05
                                0.053425          -0.000185
                                0.025236          6.1e-05
[INPUT] 0    0    [13   /1   ]  76.008334         -0.000199
                                39.277974         0.003352
                                20.405805         -0.029413
                                12.21868          0.032091
                                7.18269           0.083152
                                3.85078           0.021283
                                2.142489          -0.129989
                                1.049631          -0.239006
                                0.508682          -0.180315
                                0.192243          0.110148
                                0.108899          0.404426
                                0.053425          0.517307
                                0.025236          0.148139
[INPUT] 0    0    [13   /1   ]  76.008334         -9.1e-05
                                39.277974         0.005374
                                20.405805         -0.058494
                                12.21868          0.056345
                                7.18269           0.227874
                                3.85078           -0.00842
                                2.142489          -0.320777
                                1.049631          -0.813137
                                0.508682          0.326475
                                0.192243          1.44754
                                0.108899          0.021321
                                0.053425          -0.678323
                                0.025236          -0.452828
[INPUT] 0    0    [1    /1   ]  0.025236             1
[INPUT] 1    0    [13   /1   ]  113.479709        0.000103
                                58.160819         -0.000894
                                30.043076         0.008844
                                16.753323         -0.019685
                                10.705604         -0.06919
                                5.557903          0.011508
                                3.080151          0.282313
                                1.582963          0.438678
                                0.810922          0.309843
                                0.413396          0.083945
                                0.19548           0.007517
                                0.072688          0.0011
                                0.035877          0.00029
[INPUT] 1    0    [13   /1   ]  113.479709        1.9e-05
                                58.160819         -2.4e-05
                                30.043076         -0.001224
                                16.753323         0.00232
                                10.705604         0.020758
                                5.557903          -0.011572
                                3.080151          -0.062919
                                1.582963          -0.136754
                                0.810922          -0.067295
                                0.413396          -0.031024
                                0.19548           0.378981
                                0.072688          0.507824
                                0.035877          0.260941
[INPUT] 1    0    [13   /1   ]  113.479709        -0.000197
                                58.160819         0.001354
                                30.043076         -0.010102
                                16.753323         0.030603
                                10.705604         0.0462
                                5.557903          -0.017588
                                3.080151          -0.39592
                                1.582963          -0.419093
                                0.810922          0.075017
                                0.413396          1.092986
                                0.19548           0.00868
                                0.072688          -0.756369
                                0.035877          -0.045149
[INPUT] 1    0    [1    /1   ]  0.035877             1
[INPUT] 2    0    [11   /1   ]  132.688182        3e-05
                                45.266024         0.005294
                                23.267336         0.029143
                                10.605694         0.076775
                                5.074684          0.168551
                                2.469857          0.256832
                                1.205883          0.289891
                                0.590569          0.257154
                                0.292055          0.181726
                                0.14919           0.089986
                                0.076511          0.034595
[INPUT] 2    0    [11   /1   ]  132.688182        -2.1e-05
                                45.266024         -0.005449
                                23.267336         -0.029032
                                10.605694         -0.079825
                                5.074684          -0.174415
                                2.469857          -0.253404
                                1.205883          -0.174305
                                0.590569          0.045081
                                0.292055          0.34576
                                0.14919           0.263725
                                0.076511          0.371715
[INPUT] 2    0    [1    /1   ]  0.076511             1
[INPUT] 3    0    [1    /1   ]  1.357898             1

nuclear repulsion = 0
number of shells = 12
number of NR pGTOs = 282
number of NR cGTOs = 38
basis = ccecp-ccpvdz
ecp = ccecp
CPU time:         9.22


******** <class 'pyscf.scf.rohf.ROHF'> ********
method = ROHF-RHF
initial guess = minao
damping factor = 0
level_shift factor = 0
DIIS = <class 'pyscf.scf.diis.CDIIS'>
diis_start_cycle = 1
diis_space = 8
SCF conv_tol = 1e-09
SCF conv_tol_grad = None
SCF max_cycles = 200
direct_scf = True
direct_scf_tol = 1e-13
chkfile to save SCF result = pyscf.chk
max_memory 506352 MB (current use 105 MB)
num. doubly occ = 5  num. singly occ = 5
Set gradient conv threshold to 3.16228e-05
E1 = -189.4876422507305  Ecoul = 87.67029304985921
init E= -101.817349200871
cond(S) = 46.638388112034846
    CPU time for initialize scf    171.99 sec, wall time      2.38 sec

WARN: HOMO 0.191789494120829 >= LUMO 0.191789494120829

                  Roothaan           | alpha              | beta
  Highest 2-occ = 0.0527035102475956 | 0.0527035102475955 | 0.0527035102475955
  Lowest 0-occ =   0.191789494120829 |  0.191789494120831 |  0.191789494120831
  1-occ =          0.080699394569008 | 0.0806993945690089 | 0.0806993945690089
  1-occ =         0.0806993945690087 | 0.0806993945690083 | 0.0806993945690083
  1-occ =         0.0806993945690096 | 0.0806993945690087 | 0.0806993945690087
  1-occ =          0.191789494120825 |  0.191789494120827 |  0.191789494120827
  1-occ =          0.191789494120829 |  0.191789494120828 |  0.191789494120828
  Roothaan mo_energy =
[-3.13274716 -1.76447051 -1.76447051 -1.76447051  0.05270351  0.08069939
  0.08069939  0.08069939  0.19178949  0.19178949  0.19178949  0.19178949
  0.19178949  0.27177408  0.37362004  0.37362004  0.37362004  0.41479003
  0.41479003  0.41479003  0.41479003  0.41479003  1.20206716  1.81694077
  1.81694077  1.81694077  1.81694077  1.81694077  2.04181558  2.04181558
  2.04181558  4.42846361  4.42846361  4.42846361  4.42846361  4.42846361
  4.42846361  4.42846361]
E1 = -137.12578398269295  Ecoul = 42.094145530746914
cycle= 1 E= -95.031638451946  delta_E= 6.79  |g|= 3.98  |ddm|= 4.11
    CPU time for cycle= 1     15.83 sec, wall time      0.13 sec
  HOMO = -1.42724276355917  LUMO = -1.06604629073196
                  Roothaan           | alpha              | beta
  Highest 2-occ =  -3.17116133721019 |  -3.25289816047044 |  -3.05573841650677
  Lowest 0-occ =   -1.06604629073196 |  -1.09167181147869 |  -1.03275888548132
  1-occ =          -3.17116133721019 |  -3.25289816047044 |  -3.05573841650677
  1-occ =          -3.07257669335262 |  -3.07908550013365 |  -3.06606788657158
  1-occ =          -3.07257669335261 |  -3.07908550013365 |  -3.06606788657157
  1-occ =          -3.07257669335261 |  -3.07908550013365 |  -3.06606788657157
  1-occ =          -1.42724276355917 |  -1.44665414224949 |  -1.40783138486885
  Roothaan mo_energy =
[-7.3974018  -5.86140751 -5.86140751 -5.86140751 -3.17116134 -3.17116134
 -3.07257669 -3.07257669 -3.07257669 -1.42724276 -1.06604629 -1.06604629
 -1.06604629 -0.57056142 -0.57056142 -0.51380326 -0.51380326 -0.51380326
 -0.37179377 -0.21054864 -0.21054864 -0.21054864  0.02620125  0.02620125
  0.03684377  0.03684377  0.03684377  0.13498455  0.14860052  0.14860052
  0.14860052  1.19862989  1.19862989  1.19862989  1.20104992  1.20104992
  1.20104992  1.20412464]
E1 = -197.94504298428552  Ecoul = 98.23348384664088
cycle= 2 E= -99.7115591376446  delta_E= -4.68  |g|= 3.63  |ddm|=  4.4
    CPU time for cycle= 2     20.97 sec, wall time      0.16 sec

WARN: HOMO 0.0175899552320188 >= LUMO -0.534670044726366

                  Roothaan           | alpha              | beta
  Highest 2-occ =  -0.76103881765248 |  0.814066132338401 |  0.974081218736495
  Lowest 0-occ =  -0.534670044726366 |  0.276169825311866 |  0.305309759102062
  1-occ =         -0.392805158366511 | 0.0420470308387663 |  0.383490068335968
  1-occ =         -0.147390380220551 |  0.240259499889266 |  0.292848370927484
  1-occ =         -0.147298097825847 |  0.240337623696627 |  0.292820103161394
  1-occ =         -0.143587584758562 |  0.243391230816267 |  0.291648698576224
  1-occ =         0.0175899552320188 |   0.22253780331261 |   0.28479684671847
  Roothaan mo_energy =
[-4.45599019 -3.01674687 -3.01657344 -3.00938136 -0.76103882 -0.53467004
 -0.48043843 -0.45663981 -0.45605587 -0.39280516 -0.14739038 -0.1472981
 -0.14358758  0.01758996  0.08383165  0.0838862   0.08522486  0.08611478
  0.08775396  0.10283082  0.10461364  0.104658    0.55844709  0.8878733
  0.89604673  0.89705324  0.90846181  0.90874451  1.17222973  1.17257589
  1.1866193   3.29253924  3.29254267  3.30267874  3.30507624  3.3053505
  3.30637414  3.3078    ]
E1 = -159.2231477283529  Ecoul = 58.50228637464488
cycle= 3 E= -100.720861353708  delta_E= -1.01  |g|= 1.56  |ddm|= 5.02
    CPU time for cycle= 3     21.50 sec, wall time      0.17 sec
  HOMO = -0.398258520061672  LUMO = -0.151084666357693
                  Roothaan           | alpha              | beta
  Highest 2-occ =  -1.05525850895628 |   -2.0234980622315 |  -1.99760023900471
  Lowest 0-occ =  -0.151084666357693 | -0.529117955031455 | -0.150448350186035
  1-occ =         -0.535299617733367 |  -1.29524257119916 |  -1.26392837186875
  1-occ =         -0.522443669649006 |  -1.29610711303955 |  -1.26508219302245
  1-occ =         -0.466851170366256 |  -1.21330269861162 |  -1.18136186806562
  1-occ =         -0.465485541071225 |   -1.2112601175902 |  -1.17929213976228
  1-occ =         -0.398258520061672 | -0.933522795107375 | -0.412223875033684
  Roothaan mo_energy =
[-4.59994401 -3.14732891 -3.14694144 -3.13052804 -1.05525851 -0.53529962
 -0.52244367 -0.46685117 -0.46548554 -0.39825852 -0.15108467 -0.15077518
 -0.13846612  0.02531873  0.10286308  0.10299237  0.10821183  0.12716692
  0.12758138  0.1313269   0.13612125  0.13624433  0.57187194  0.87337588
  0.885612    0.88601314  0.91174606  0.91240224  1.14537317  1.14621563
  1.18009705  3.24930813  3.24930816  3.27067318  3.27659379  3.27725287
  3.28147469  3.28185994]
E1 = -189.06748181570362  Ecoul = 86.37968220827766
cycle= 4 E= -102.687799607426  delta_E= -1.97  |g|= 1.46  |ddm|= 4.42
    CPU time for cycle= 4     18.94 sec, wall time      0.15 sec
  HOMO = -0.200291368036447  LUMO = 0.00375041073947511
                  Roothaan           | alpha              | beta
  Highest 2-occ = -0.665981814538797 | 0.0855314346021772 |  0.222575033071469
  Lowest 0-occ =  0.00375041073947511 | 0.0933469687924481 |   0.13625818866355
  1-occ =         -0.270049348293896 | 0.0235356284382628 |  0.994392256256913
  1-occ =         -0.261523291810744 | 0.0246923961737354 |  0.998571125516702
  1-occ =         -0.219541635282339 | 0.0553397360851287 |   1.03069490149242
  1-occ =         -0.218532442760518 | 0.0560593991588858 |   1.03148114083256
  1-occ =         -0.200291368036447 | -0.142278683457195 |  0.211890580502124
  Roothaan mo_energy =
[-4.14872021e+00 -2.71764646e+00 -2.71739709e+00 -2.70708132e+00
 -6.65981815e-01 -2.70049348e-01 -2.61523292e-01 -2.19541635e-01
 -2.18532443e-01 -2.00291368e-01  3.75041074e-03  3.86900011e-03
  8.56593327e-03  1.09736664e-01  1.84146339e-01  1.84321598e-01
  1.91689240e-01  2.01103144e-01  2.03136543e-01  2.04826710e-01
  2.08515047e-01  2.08610112e-01  7.79791839e-01  1.15991704e+00
  1.19307243e+00  1.19399078e+00  1.21885583e+00  1.21946609e+00
  1.44823059e+00  1.44888352e+00  1.47595842e+00  3.67212585e+00
  3.67212620e+00  3.68460488e+00  3.69007980e+00  3.69051739e+00
  3.69602292e+00  3.69617456e+00]
E1 = -187.10955375338676  Ecoul = 84.18432803870446
cycle= 5 E= -102.925225714682  delta_E= -0.237  |g|= 0.985  |ddm|= 0.351
    CPU time for cycle= 5     15.86 sec, wall time      0.12 sec
  HOMO = -0.0100465580690952  LUMO = 0.0393176845890535
                  Roothaan           | alpha              | beta
  Highest 2-occ = -0.396664542099407 | -0.0816729722623387 | 0.0446311028721193
  Lowest 0-occ =  0.0393176845890535 | 0.0608041962270951 | 0.0951935162378397
  1-occ =         -0.145957932944392 | -0.185632773252733 |  0.125701336623611
  1-occ =          -0.04618057789079 | -0.140392309404527 |  0.784550277543092
  1-occ =         -0.0449810745089909 | -0.142041563234806 |  0.780848888039575
  1-occ =         -0.0108883716718584 |  -0.11291973494014 |  0.807817252123834
  1-occ =         -0.0100465580690952 |  -0.11223749403155 |  0.808395011895954
  Roothaan mo_energy =
[-3.82951118 -2.41755179 -2.41730258 -2.40650348 -0.39666454 -0.14595793
 -0.04618058 -0.04498107 -0.01088837 -0.01004656  0.03931768  0.03942652
  0.04376856  0.16463734  0.23257683  0.23298093  0.23723296  0.23734648
  0.23819802  0.24046873  0.24069151  0.24983732  0.92308178  1.33919347
  1.34031514  1.35109083  1.36079789  1.36132758  1.62585805  1.62651788
  1.65304648  3.89491001  3.89491004  3.90764657  3.91256974  3.9130212
  3.91776739  3.91778572]
E1 = -182.9496070172092  Ecoul = 79.83482328061794
cycle= 6 E= -103.114783736591  delta_E= -0.19  |g|= 0.108  |ddm|= 0.445
    CPU time for cycle= 6     24.06 sec, wall time      0.19 sec
  HOMO = 0.0250468578234717  LUMO = 0.0557599729627662
                  Roothaan           | alpha              | beta
  Highest 2-occ = -0.314660970092414 | -0.325169627721277 | -0.208068132898495
  Lowest 0-occ =  0.0557599729627662 | 0.0434650645099135 | 0.0790100090624717
  1-occ =         -0.0916774603519228 |  -0.22878475669072 | 0.0725643786310519
  1-occ =         -0.0056769677734912 |  -0.40016219872862 |  0.489504378761719
  1-occ =         -0.00558206973143579 | -0.397359420095341 |  0.491193144247391
  1-occ =         0.0243261893076125 | -0.364295604156058 |  0.525564931705187
  1-occ =         0.0250468578234717 | -0.363423948170682 |  0.526406338495107
  Roothaan mo_energy =
[-3.74998445 -2.33932981 -2.33911188 -2.32967147 -0.31466097 -0.09167746
 -0.00567697 -0.00558207  0.02432619  0.02504686  0.05575997  0.05583837
  0.05900872  0.17338284  0.25401425  0.2542225   0.25656522  0.26464071
  0.2648768   0.27311982  0.27332243  0.28157832  0.9492573   1.40081074
  1.41072888  1.41082204  1.43087899  1.43138603  1.68431408  1.68489853
  1.70857543  3.97701229  3.9770125   3.98777181  3.99231223  3.9927049
  3.9972797   3.99740265]
E1 = -182.83855499090885  Ecoul = 79.72064006127172
cycle= 7 E= -103.117914929637  delta_E= -0.00313  |g|= 0.0706  |ddm|= 0.368
    CPU time for cycle= 7     27.08 sec, wall time      0.21 sec
  HOMO = 0.0371543578672856  LUMO = 0.0574827943560307
                  Roothaan           | alpha              | beta
  Highest 2-occ = -0.296518504702797 | -0.325862842048179 |  -0.20907774579397
  Lowest 0-occ =  0.0574827943560307 | 0.0425726475980882 | 0.0770632503519275
  1-occ =         -0.0862606388663528 | -0.225601464232779 | 0.0671796816219959
  1-occ =         0.00635611888488597 | -0.406955318608265 |  0.479747507475797
  1-occ =         0.00643154546458475 | -0.408172781505025 |  0.479343413137127
  1-occ =         0.0364208553060688 | -0.381270790315019 |   0.50988320428534
  1-occ =         0.0371543578672856 | -0.380599028292462 |  0.510603017727071
  Roothaan mo_energy =
[-3.7319306  -2.32224507 -2.32203075 -2.31280891 -0.2965185  -0.08626064
  0.00635612  0.00643155  0.03642086  0.03715436  0.05748279  0.05755924
  0.06062705  0.17886018  0.25517598  0.255191    0.25700388  0.26036075
  0.26049755  0.27914868  0.27935019  0.28754206  0.9584869   1.41379881
  1.42441652  1.42461924  1.44478233  1.44529222  1.69670566  1.69728428
  1.72065786  3.99470002  3.99470002  4.00538543  4.00962089  4.01000319
  4.01422509  4.01422544]
E1 = -182.343287509626  Ecoul = 79.22279743687358
cycle= 8 E= -103.120490072752  delta_E= -0.00258  |g|= 0.00955  |ddm|= 0.141
    CPU time for cycle= 8     16.37 sec, wall time      0.13 sec
  HOMO = 0.0294848170086871  LUMO = 0.05656729143977
                  Roothaan           | alpha              | beta
  Highest 2-occ = -0.302242983562395 |  -0.35415022297233 | -0.238577961083742
  Lowest 0-occ =    0.05656729143977 | 0.0396360288700681 | 0.0757414532648514
  1-occ =         -0.0893050393899791 | -0.232496862959698 | 0.0605372052736735
  1-occ =         -0.00114364660650726 | -0.437871157893476 |  0.446918732167845
  1-occ =         -0.00104675306649264 | -0.437434005184818 |  0.446517057429291
  1-occ =         0.0287532414149618 | -0.408569685045008 |  0.477956595245942
  1-occ =         0.0294848170086871 | -0.407833182965334 |  0.478718535967109
  Roothaan mo_energy =
[-3.73989934e+00 -2.33014659e+00 -2.32993722e+00 -2.32102198e+00
 -3.02242984e-01 -8.93050394e-02 -1.14364661e-03 -1.04675307e-03
  2.87532414e-02  2.94848170e-02  5.65672914e-02  5.66429991e-02
  5.96494026e-02  1.80033740e-01  2.53697535e-01  2.53941329e-01
  2.55946039e-01  2.58878410e-01  2.59013308e-01  2.77785951e-01
  2.77985017e-01  2.86083724e-01  9.56505459e-01  1.40981786e+00
  1.42032414e+00  1.42041119e+00  1.44048772e+00  1.44099117e+00
  1.69261200e+00  1.69318446e+00  1.71630975e+00  3.98899854e+00
  3.98899855e+00  3.99941214e+00  4.00359412e+00  4.00396860e+00
  4.00816299e+00  4.00817670e+00]
E1 = -182.4819889357067  Ecoul = 79.36142866469842
cycle= 9 E= -103.120560271008  delta_E= -7.02e-05  |g|= 0.0246  |ddm|= 0.0272
    CPU time for cycle= 9     16.36 sec, wall time      0.13 sec
  HOMO = 0.0333317455759502  LUMO = 0.057493613650549
                  Roothaan           | alpha              | beta
  Highest 2-occ = -0.295066583033362 | -0.344909730656771 | -0.229175399071113
  Lowest 0-occ =   0.057493613650549 | 0.0403385160858991 | 0.0757277750905846
  1-occ =         -0.0866627058082702 | -0.230957388841234 |  0.061211675379958
  1-occ =         0.0031710452319842 | -0.429892789752269 |  0.457270709801183
  1-occ =         0.00322005106108448 | -0.430236554744813 |  0.456844827473215
  1-occ =          0.032603885469608 | -0.402306863752774 |  0.488831151016878
  1-occ =         0.0333317455759502 | -0.401617589655382 |  0.489593772897729
  Roothaan mo_energy =
[-3.73301879e+00 -2.32356140e+00 -2.32335349e+00 -2.31460244e+00
 -2.95066583e-01 -8.66627058e-02  3.17104523e-03  3.22005106e-03
  3.26038855e-02  3.33317456e-02  5.74936137e-02  5.75693222e-02
  6.05330743e-02  1.80451993e-01  2.54844201e-01  2.55170880e-01
  2.57527571e-01  2.60034224e-01  2.60152714e-01  2.79863139e-01
  2.80062198e-01  2.88110889e-01  9.59733003e-01  1.41514387e+00
  1.42453706e+00  1.42455199e+00  1.44418258e+00  1.44467386e+00
  1.69726247e+00  1.69783152e+00  1.72066923e+00  3.99484059e+00
  3.99484061e+00  4.00502213e+00  4.00915757e+00  4.00952848e+00
  4.01370098e+00  4.01371636e+00]
E1 = -182.42948119997715  Ecoul = 79.3088298200004
cycle= 10 E= -103.120651379977  delta_E= -9.11e-05  |g|= 0.0122  |ddm|= 0.0215
    CPU time for cycle= 10     15.36 sec, wall time      0.12 sec
  HOMO = 0.0350647425120901  LUMO = 0.05764900330279
                  Roothaan           | alpha              | beta
  Highest 2-occ = -0.292699142043603 | -0.346469022205956 | -0.230669506027847
  Lowest 0-occ =    0.05764900330279 | 0.0402067520577251 | 0.0754668932832333
  1-occ =         -0.0861611422178593 | -0.231170485732389 | 0.0604238348588854
  1-occ =         0.0050934236684189 | -0.433608539057787 |  0.453213561217411
  1-occ =         0.00512171563622872 | -0.433966449616403 |  0.453092111696953
  1-occ =         0.0343446230424124 |  -0.40681273898688 |  0.484791827707522
  1-occ =         0.0350647425120901 | -0.406127930179424 |  0.485572719292074
  Roothaan mo_energy =
[-3.73038841 -2.32107039 -2.32086277 -2.31216052 -0.29269914 -0.08616114
  0.00509342  0.00512172  0.03434462  0.03506474  0.057649    0.05772481
  0.06067644  0.18062564  0.25504642  0.25519829  0.25774316  0.26030297
  0.26044369  0.28036429  0.28056355  0.28859566  0.96078681  1.41677661
  1.42573128  1.42576626  1.44522242  1.44570881  1.6987692   1.69933731
  1.72207735  3.99674816  3.99674816  4.00683024  4.01096798  4.01133901
  4.0155365   4.01554635]
E1 = -182.38138658963425  Ecoul = 79.2606959382071
cycle= 11 E= -103.120690651427  delta_E= -3.93e-05  |g|= 0.00292  |ddm|= 0.00899
    CPU time for cycle= 11     39.41 sec, wall time      0.31 sec
  HOMO = 0.0355224502822141  LUMO = 0.0576615641442992
                  Roothaan           | alpha              | beta
  Highest 2-occ = -0.292150181710023 |  -0.34912001153058 | -0.233350508463576
  Lowest 0-occ =  0.0576615641442992 | 0.0400678230195434 | 0.0753656081051093
  1-occ =         -0.0860985476640651 | -0.231704499948968 | 0.0599704133761314
  1-occ =         0.00556205644752296 | -0.436606285948917 |  0.449696256599946
  1-occ =         0.00556873970471044 | -0.436474222088615 |  0.449668032713934
  1-occ =         0.0347996701694721 | -0.409641108423561 |  0.481051352392447
  1-occ =         0.0355224502822141 | -0.408973594754164 |  0.481818356219724
  Roothaan mo_energy =
[-3.72974081 -2.32045651 -2.32024824 -2.311582   -0.29215018 -0.08609855
  0.00556206  0.00556874  0.03479967  0.03552245  0.05766156  0.05773758
  0.06067625  0.18069871  0.2552034   0.25521519  0.25772066  0.26021944
  0.26034929  0.28047099  0.28067067  0.28868629  0.96104742  1.41712048
  1.42601398  1.42601635  1.44546944  1.44595728  1.69914101  1.69971004
  1.72239289  3.99723091  3.99723091  4.00724813  4.01138719  4.01175851
  4.01597318  4.01597604]
E1 = -182.36507781579172  Ecoul = 79.24437849620008
cycle= 12 E= -103.120699319592  delta_E= -8.67e-06  |g|= 0.000923  |ddm|= 0.0063
    CPU time for cycle= 12     19.46 sec, wall time      0.15 sec
  HOMO = 0.0355034922158746  LUMO = 0.0576600601520128
                  Roothaan           | alpha              | beta
  Highest 2-occ = -0.292164433246179 | -0.350110433605093 | -0.234287515410773
  Lowest 0-occ =  0.0576600601520128 | 0.0400395609346342 | 0.0753267860234667
  1-occ =         -0.0860867557640432 |    -0.231932228113 |  0.059790731353851
  1-occ =         0.00551377535615303 | -0.437535627903712 |  0.448545927728914
  1-occ =         0.00551666509060918 | -0.437511917775267 |  0.448550441288079
  1-occ =         0.0347804166291307 | -0.410453960758476 |   0.47995289902718
  1-occ =         0.0355034922158746 | -0.409774116707763 |  0.480715238285224
  Roothaan mo_energy =
[-3.72977551 -2.32050657 -2.32029879 -2.31158077 -0.29216443 -0.08608676
  0.00551378  0.00551667  0.03478042  0.03550349  0.05766006  0.0577359
  0.06069389  0.1806919   0.25519473  0.25520269  0.25775224  0.26025306
  0.26038059  0.28046188  0.2806613   0.2887053   0.96102625  1.41714546
  1.42598845  1.42599167  1.44546309  1.44595046  1.69909865  1.6996669
  1.7224269   3.99716334  3.99716334  4.00727029  4.01140139  4.01177204
  4.01595927  4.01596108]
E1 = -182.36769054564752  Ecoul = 79.24699850975428
cycle= 13 E= -103.120692035893  delta_E= 7.28e-06  |g|= 0.000789  |ddm|= 0.00642
    CPU time for cycle= 13     17.39 sec, wall time      0.13 sec
  HOMO = 0.0358051915444085  LUMO = 0.0576503140220655
                  Roothaan           | alpha              | beta
  Highest 2-occ = -0.292163187880983 | -0.349767578867485 | -0.234013372232266
  Lowest 0-occ =  0.0576503140220655 | 0.0400268122068594 | 0.0753348693286754
  1-occ =         -0.0859347554541905 |  -0.23201589190004 | 0.0596290936599832
  1-occ =         0.00565950229509456 | -0.437378492782101 |  0.448432408934678
  1-occ =         0.00565952302411814 | -0.437375456986878 |  0.448483422676991
  1-occ =          0.035088430157479 | -0.410309999059536 |  0.480151709254291
  1-occ =         0.0358051915444085 | -0.409628295953977 |  0.480935978698963
  Roothaan mo_energy =
[-3.72948784 -2.32030336 -2.32009893 -2.31112972 -0.29216319 -0.08593476
  0.0056595   0.00565952  0.03508843  0.03580519  0.05765031  0.05772491
  0.06077318  0.18072841  0.25504606  0.25507958  0.25795312  0.26030954
  0.26045337  0.28049123  0.28068877  0.28887385  0.96112649  1.41745295
  1.4261011   1.42610275  1.44573759  1.44622271  1.69915982  1.69972322
  1.72287704  3.99715313  3.99715313  4.00772947  4.01181504  4.01218225
  4.01621872  4.01621901]
E1 = -182.36288563078492  Ecoul = 79.24221256365004
cycle= 14 E= -103.120673067135  delta_E= 1.9e-05  |g|= 0.000734  |ddm|= 0.0315
    CPU time for cycle= 14     17.40 sec, wall time      0.14 sec
  HOMO = 0.0356878987176519  LUMO = 0.0576464514484614
                  Roothaan           | alpha              | beta
  Highest 2-occ = -0.292039749741175 | -0.349817854642547 | -0.234602444951374
  Lowest 0-occ =  0.0576464514484614 | 0.0398744799056924 | 0.0753976767619094
  1-occ =         -0.0860619211422134 |  -0.23215314420564 | 0.0597728071855847
  1-occ =         0.00552414182800393 | -0.437620755158407 |  0.448150452689111
  1-occ =         0.00553183648006887 | -0.437655599654132 |   0.44814206514995
  1-occ =         0.0349646032295443 | -0.410553557619602 |  0.479888607230516
  1-occ =         0.0356878987176519 | -0.409890297787232 |  0.480645119306135
  Roothaan mo_energy =
[-3.7296353  -2.32044872 -2.32024402 -2.31124739 -0.29203975 -0.08606192
  0.00552414  0.00553184  0.0349646   0.0356879   0.05764645  0.05772106
  0.06078091  0.18066378  0.25508225  0.25509965  0.25796566  0.26033874
  0.26045857  0.28044791  0.28064565  0.28884634  0.96105702  1.41740598
  1.42598334  1.42598652  1.44562387  1.44611093  1.69905801  1.69962188
  1.72281251  3.99699286  3.99699286  4.00762286  4.01169923  4.01206604
  4.01607827  4.01608133]
E1 = -182.36637457665393  Ecoul = 79.24570164886596
cycle= 15 E= -103.120672927788  delta_E= 1.39e-07  |g|= 0.000214  |ddm|= 0.00444
    CPU time for cycle= 15     16.88 sec, wall time      0.13 sec
  HOMO = 0.0356402613961609  LUMO = 0.0576457777640584
                  Roothaan           | alpha              | beta
  Highest 2-occ = -0.291955584168824 | -0.349571287386106 | -0.234359575557303
  Lowest 0-occ =  0.0576457777640584 | 0.0398789311250832 |  0.075411734223427
  1-occ =         -0.086132511594075 | -0.232119687641689 | 0.0598389026573171
  1-occ =         0.00549117302880085 | -0.437484564984929 |  0.448384633084901
  1-occ =         0.00549543747868757 |  -0.43746708556663 |  0.448392453787629
  1-occ =         0.0349195477804182 | -0.410369553279016 |  0.480137051192035
  1-occ =         0.0356402613961609 | -0.409683931683092 |   0.48090135358128
  Roothaan mo_energy =
[-3.72969321 -2.32050004 -2.32029569 -2.31129755 -0.29195558 -0.08613251
  0.00549117  0.00549544  0.03491955  0.03564026  0.05764578  0.05772031
  0.06078105  0.18065022  0.255068    0.25507054  0.2579707   0.2603323
  0.26046115  0.28044052  0.28063806  0.28883899  0.96103054  1.41738113
  1.42596364  1.42596451  1.44560354  1.44608962  1.69902861  1.69959198
  1.72278269  3.99695618  3.99695618  4.0075926   4.01166641  4.01203309
  4.01604117  4.01604322]
E1 = -182.36655657590754  Ecoul = 79.24588372431249
cycle= 16 E= -103.120672851595  delta_E= 7.62e-08  |g|= 0.000183  |ddm|= 0.00136
    CPU time for cycle= 16     15.87 sec, wall time      0.12 sec
  HOMO = 0.0356306215187441  LUMO = 0.0576464138252917
                  Roothaan           | alpha              | beta
  Highest 2-occ = -0.291938562568859 | -0.349556350058968 | -0.234344202223966
  Lowest 0-occ =  0.0576464138252917 | 0.0398772166913701 | 0.0754135420764404
  1-occ =         -0.0861470454286691 | -0.232128904982917 | 0.0598439429674113
  1-occ =         0.00548358129593993 | -0.437457926796668 |  0.448390224279866
  1-occ =         0.00548781972215923 | -0.437457409968709 |  0.448397047821249
  1-occ =         0.0349100424337312 | -0.410356450065429 |  0.480137366762133
  1-occ =         0.0356306215187441 | -0.409679291191877 |  0.480904336145203
  Roothaan mo_energy =
[-3.72970707 -2.32051179 -2.32030744 -2.31130976 -0.29193856 -0.08614705
  0.00548358  0.00548782  0.03491004  0.03563062  0.05764641  0.05772092
  0.06078147  0.18064861  0.25506493  0.25506676  0.25797032  0.2603284
  0.26045814  0.28044138  0.28063893  0.28883927  0.96102597  1.41737384
  1.42596369  1.42596518  1.44560559  1.44609168  1.69902393  1.69958733
  1.72277656  3.99695357  3.99695358  4.00758964  4.01166312  4.01202984
  4.01603754  4.01603963]
E1 = -182.36650152303227  Ecoul = 79.24582873427352
cycle= 17 E= -103.120672788759  delta_E= 6.28e-08  |g|= 0.000225  |ddm|= 0.00223
    CPU time for cycle= 17     15.34 sec, wall time      0.12 sec
  HOMO = 0.0356280459376555  LUMO = 0.0576463075159107
                  Roothaan           | alpha              | beta
  Highest 2-occ = -0.291938349953167 | -0.349564838395528 | -0.234353842101309
  Lowest 0-occ =  0.0576463075159107 | 0.0398764197318474 | 0.0754135087819393
  1-occ =         -0.0861418130283862 |  -0.23213280284714 | 0.0598454235668165
  1-occ =         0.00548064292212423 | -0.437459746141196 |  0.448393972197673
  1-occ =         0.00548502936936725 | -0.437457264932814 |  0.448399679355176
  1-occ =         0.0349060518685872 | -0.410352165880243 |  0.480141903898741
  1-occ =         0.0356280459376555 | -0.409675349623209 |  0.480905018346511
  Roothaan mo_energy =
[-3.72971062 -2.32051523 -2.32031067 -2.31131272 -0.29193835 -0.08614181
  0.00548064  0.00548503  0.03490605  0.03562805  0.05764631  0.05772076
  0.06078164  0.18064617  0.2550701   0.25507111  0.2579716   0.26033286
  0.26045946  0.28043941  0.28063715  0.28883774  0.96102056  1.4173776
  1.42595638  1.42595857  1.44559846  1.44608516  1.6990206   1.69958447
  1.7227734   3.99694865  3.99694865  4.00758527  4.01165851  4.01202545
  4.01603268  4.01603481]
E1 = -182.3667680558542  Ecoul = 79.2460951461459
cycle= 18 E= -103.120672909708  delta_E= -1.21e-07  |g|= 0.000111  |ddm|= 0.00146
    CPU time for cycle= 18     14.83 sec, wall time      0.12 sec
  HOMO = 0.0356272677343058  LUMO = 0.0576464496317654
                  Roothaan           | alpha              | beta
  Highest 2-occ =  -0.29193715703842 | -0.349542232438495 | -0.234329570778872
  Lowest 0-occ =  0.0576464496317654 | 0.0398795244485799 |    0.0754140054798
  1-occ =         -0.086143356519324 | -0.232128198147886 | 0.0598503643424389
  1-occ =         0.00547997527032062 | -0.437448259698535 |   0.44841561282621
  1-occ =         0.00548458844482005 | -0.437444936995314 |  0.448419653795876
  1-occ =         0.0349053482641513 | -0.410343413597161 |  0.480162194995138
  1-occ =         0.0356272677343058 |   -0.4096630672952 |  0.480925463583162
  Roothaan mo_energy =
[-3.72971146 -2.32051587 -2.32031131 -2.31131332 -0.29193716 -0.08614336
  0.00547998  0.00548459  0.03490535  0.03562727  0.05764645  0.05772092
  0.0607818   0.18064537  0.25507046  0.25507086  0.25797175  0.26033374
  0.26046058  0.28043932  0.28063705  0.28883765  0.96102021  1.41737657
  1.42595637  1.42595867  1.44559869  1.44608539  1.69902025  1.69958411
  1.72277314  3.99694795  3.99694795  4.00758477  4.01165797  4.01202492
  4.01603205  4.01603425]
E1 = -182.366816343888  Ecoul = 79.24614339514721
cycle= 19 E= -103.120672948741  delta_E= -3.9e-08  |g|= 2.05e-05  |ddm|= 0.000719
    CPU time for cycle= 19     23.54 sec, wall time      0.18 sec
  HOMO = 0.0356299517330726  LUMO = 0.0576470092268064
                  Roothaan           | alpha              | beta
  Highest 2-occ = -0.291936686118686 | -0.349539934759514 | -0.234327142685077
  Lowest 0-occ =  0.0576470092268064 | 0.0398798542332177 |  0.075414103105706
  1-occ =         -0.0861381684092539 | -0.232127369383858 | 0.0598512062058405
  1-occ =         0.0054824009206433 | -0.437445673035841 |  0.448418304928614
  1-occ =         0.00548677711365138 | -0.437440993489576 |  0.448423502776056
  1-occ =         0.0349080996054969 | -0.410340643896539 |  0.480161563080053
  1-occ =         0.0356299517330726 | -0.409660384019164 |  0.480926159334374
  Roothaan mo_energy =
[-3.72970971 -2.32051389 -2.32030922 -2.3113114  -0.29193669 -0.08613817
  0.0054824   0.00548678  0.0349081   0.03562995  0.05764701  0.05772169
  0.06078253  0.18064519  0.25507134  0.25507227  0.25797281  0.26033171
  0.26045983  0.28044076  0.2806386   0.28883914  0.96102181  1.41737943
  1.42595879  1.42596127  1.44560151  1.44608839  1.69902226  1.69958646
  1.72277502  3.9969515   3.9969515   4.007588    4.01166104  4.01202825
  4.01603528  4.01603742]
E1 = -182.366699814658  Ecoul = 79.24602686600365
cycle= 20 E= -103.120672948654  delta_E= 8.64e-11  |g|= 1.88e-05  |ddm|= 0.000156
    CPU time for cycle= 20     26.10 sec, wall time      0.20 sec
  HOMO = 0.0356259623170542  LUMO = 0.0576465856602278
                  Roothaan           | alpha              | beta
  Highest 2-occ = -0.291940096404902 | -0.349546448197933 | -0.234333765215857
  Lowest 0-occ =  0.0576465856602278 | 0.0398791410399561 | 0.0754139793138385
  1-occ =         -0.0861398941324094 | -0.232129302192606 | 0.0598496198685303
  1-occ =         0.00547878948032437 | -0.437452644682295 |  0.448410568140705
  1-occ =         0.00548325069107669 |  -0.43744901389446 |  0.448415319879718
  1-occ =          0.034903458630237 |  -0.41034573749355 |  0.480156602881688
  1-occ =         0.0356259623170542 | -0.409665839167617 |   0.48092040031834
  Roothaan mo_energy =
[-3.72971414 -2.32051821 -2.32031345 -2.31131576 -0.2919401  -0.08613989
  0.00547879  0.00548325  0.03490346  0.03562596  0.05764659  0.05772121
  0.06078207  0.18064521  0.25507036  0.25507081  0.25797219  0.26033338
  0.26046049  0.2804396   0.28063755  0.28883796  0.96101992  1.41737659
  1.425956    1.42595852  1.44559805  1.44608528  1.6990193   1.69958376
  1.722772    3.99694759  3.99694759  4.00758389  4.01165693  4.01202426
  4.01603135  4.01603352]
E1 = -182.36679135121815  Ecoul = 79.2461185164846
Extra cycle  E= -103.120672834734  delta_E= 1.14e-07  |g|= 0.000187  |ddm|= 0.00116
    CPU time for scf_cycle    588.46 sec, wall time      5.63 sec
    CPU time for SCF    588.46 sec, wall time      5.63 sec
converged SCF energy = -103.120672834734
