#INFO: **** input file is /home/nkousuke/lustre/toBeSync/turboRVB/05turbo-genius-development/turbogenius_paper/04data/sanity_checks/03pyscf_HF_turbo_VMC_via_trexio/00open_boundary/results/F/pyscf-HF-workflow/run.py ****

from pyscf_wrapper import Pyscf_wrapper

# input variables
pyscf_chkfile="pyscf.chk"
structure_file="F.xyz"

# input variables
omp_num_threads=128
charge=0
spin=1
basis="ccecp-ccpv6z"
ecp="ccecp"
scf_method="HF"
dft_xc="NA"
solver_newton=False
MP2_flag=False
CCSD_flag=False
pyscf_output="out.pyscf"
twist_average=False
exp_to_discard=0.0
kpt=[0.0, 0.0, 0.0]
kpt_grid=[1, 1, 1]
smearing_method="fermi"
smearing_sigma=0.0

pyscf_calc=Pyscf_wrapper(
                        structure_file=structure_file,
                        chkfile=pyscf_chkfile,
                        )

pyscf_calc.run_pyscf(
                  omp_num_threads=omp_num_threads,
                  charge=charge,
                  spin=spin,
                  basis=basis,
                  ecp=ecp,
                  scf_method=scf_method,
                  dft_xc=dft_xc,
                  solver_newton=solver_newton,
                  MP2_flag=MP2_flag,
                  CCSD_flag=CCSD_flag,
                  pyscf_output=pyscf_output,
                  twist_average=twist_average,
                  exp_to_discard=exp_to_discard,
                  kpt=kpt,
                  kpt_grid=kpt_grid,
                  smearing_method=smearing_method,
                  smearing_sigma=smearing_sigma
                  )
                #INFO: ******************** input file end ********************


System: uname_result(system='Linux', node='spcc-200', release='5.4.0-66-generic', version='#74-Ubuntu SMP Wed Jan 27 22:54:38 UTC 2021', machine='x86_64', processor='x86_64')  Threads 128
Python 3.7.3 (default, Mar 27 2019, 22:11:17) 
[GCC 7.3.0]
numpy 1.20.1  scipy 1.7.3
Date: Mon Dec 19 18:11:24 2022
PySCF version 2.0.1
PySCF path  /home/nkousuke/application/anaconda3/lib/python3.7/site-packages/pyscf

[CONFIG] conf_file /home/nkousuke/.pyscf_conf.py
[INPUT] verbose = 5
[INPUT] max_memory = 507477.80078125 
[INPUT] num. atoms = 1
[INPUT] num. electrons = 7
[INPUT] charge = 0
[INPUT] spin (= nelec alpha-beta = 2S) = 1
[INPUT] symmetry False subgroup None
[INPUT] Mole.unit = A
[INPUT]  1 F      0.000000000000   0.000000000000   0.000000000000 AA    0.000000000000   0.000000000000   0.000000000000 Bohr
[INPUT] ---------------- BASIS SET ---------------- 
[INPUT] l, kappa, [nprim/nctr], expnt,             c_1 c_2 ...
[INPUT] F
[INPUT] 0    0    [10   /1   ]  84.048652         -2.8e-06
                                41.094617         -0.0003543
                                20.092738         0.0184088
                                9.824112          -0.1277661
                                4.803386          -0.0702872
                                2.34856           0.1571604
                                1.148301          0.3769012
                                0.561449          0.4095165
                                0.274514          0.1970893
                                0.13422           0.0243482
[INPUT] 0    0    [1    /1   ]  0.233059             1
[INPUT] 0    0    [1    /1   ]  0.592958             1
[INPUT] 0    0    [1    /1   ]  1.314982             1
[INPUT] 0    0    [1    /1   ]  3.027989             1
[INPUT] 0    0    [1    /1   ]  8.912111             1
[INPUT] 1    0    [10   /1   ]  31.642619         0.0029673
                                16.243233         0.0298049
                                8.338204          0.0669489
                                4.280284          0.133779
                                2.197215          0.2148312
                                1.127906          0.2664862
                                0.578992          0.2618954
                                0.297216          0.1920217
                                0.152571          0.0828465
                                0.07832           0.0133046
[INPUT] 1    0    [1    /1   ]  0.148966             1
[INPUT] 1    0    [1    /1   ]  0.395349             1
[INPUT] 1    0    [1    /1   ]  0.95455              1
[INPUT] 1    0    [1    /1   ]  2.351442             1
[INPUT] 1    0    [1    /1   ]  3.775099             1
[INPUT] 2    0    [1    /1   ]  0.386789             1
[INPUT] 2    0    [1    /1   ]  1.013215             1
[INPUT] 2    0    [1    /1   ]  2.283487             1
[INPUT] 2    0    [1    /1   ]  4.506522             1
[INPUT] 2    0    [1    /1   ]  10.621414            1
[INPUT] 3    0    [1    /1   ]  0.622999             1
[INPUT] 3    0    [1    /1   ]  1.57475              1
[INPUT] 3    0    [1    /1   ]  3.355094             1
[INPUT] 3    0    [1    /1   ]  7.444477             1
[INPUT] 4    0    [1    /1   ]  1.163722             1
[INPUT] 4    0    [1    /1   ]  2.896899             1
[INPUT] 4    0    [1    /1   ]  6.536467             1
[INPUT] 5    0    [1    /1   ]  1.955732             1
[INPUT] 5    0    [1    /1   ]  4.954963             1
[INPUT] 6    0    [1    /1   ]  3.576219             1

nuclear repulsion = 0
number of shells = 27
number of NR pGTOs = 175
number of NR cGTOs = 139
basis = ccecp-ccpv6z
ecp = ccecp
CPU time:         5.14


******** <class 'pyscf.scf.rohf.ROHF'> ********
method = ROHF-RHF
initial guess = minao
damping factor = 0
level_shift factor = 0
DIIS = <class 'pyscf.scf.diis.CDIIS'>
diis_start_cycle = 1
diis_space = 8
SCF conv_tol = 1e-09
SCF conv_tol_grad = None
SCF max_cycles = 200
direct_scf = True
direct_scf_tol = 1e-13
chkfile to save SCF result = pyscf.chk
max_memory 507477 MB (current use 106 MB)
num. doubly occ = 3  num. singly occ = 1
Set gradient conv threshold to 3.16228e-05
E1 = -40.9383545368355  Ecoul = 17.34571275996064
init E= -23.5926417768749
cond(S) = 141470.32034077583
    CPU time for initialize scf    248.56 sec, wall time      2.64 sec
  HOMO = -0.606144845775785  LUMO = 0.396381026491228
                  Roothaan           | alpha              | beta
  Highest 2-occ = -0.606144845775801 | -0.606144845775803 | -0.606144845775803
  Lowest 0-occ =   0.396381026491228 |  0.396381026491247 |  0.396381026491247
  1-occ =         -0.606144845775785 | -0.606144845775805 | -0.606144845775805
  Roothaan mo_energy =
[-1.60886119 -0.60614485 -0.60614485 -0.60614485  0.39638103  0.39638103
  0.39638103  0.55926902  1.06940499  1.06940499  1.06940499  1.06940499
  1.06940499  1.67412284  1.67412284  1.67412284  2.43697811  2.43697811
  2.43697811  2.43697811  2.43697811  2.43697811  2.43697811  2.96250118
  3.23408875  3.23408875  3.23408875  3.23408875  3.23408875  4.96327439
  4.96327439  4.96327439  5.74964596  5.74964596  5.74964596  5.74964596
  5.74964596  5.74964596  5.74964596  5.74964596  5.74964596  6.96022178
  6.96022178  6.96022178  6.96022178  6.96022178  6.96022178  6.96022178
  8.11681301  8.11681301  8.11681301  8.11681301  8.11681301  9.70555435
 11.74825019 11.74825019 11.74825019 11.74825019 11.74825019 11.74825019
 11.74825019 11.74825019 11.74825019 11.74825019 11.74825019 12.85718553
 12.85718553 12.85718553 15.967595   15.967595   15.967595   15.967595
 15.967595   15.967595   15.967595   15.967595   15.967595   16.60685516
 16.60685516 16.60685516 16.60685516 16.60685516 16.60685516 16.60685516
 18.85842849 18.85842849 18.85842849 18.85842849 18.85842849 25.62829356
 25.62829356 25.62829356 25.62829356 25.62829356 25.62829356 25.62829356
 25.62829356 25.62829356 25.62829356 25.62829356 25.62829356 25.62829356
 27.41930961 31.66780992 31.66780992 31.66780992 33.08956752 33.08956752
 33.08956752 33.08956752 33.08956752 33.08956752 33.08956752 33.08956752
 33.08956752 33.08956752 33.08956752 38.65825264 38.65825264 38.65825264
 38.65825264 38.65825264 38.65825264 38.65825264 39.36352406 39.36352406
 39.36352406 39.36352406 39.36352406 39.36352406 39.36352406 39.36352406
 39.36352406 44.4495861  44.4495861  44.4495861  44.4495861  44.4495861
 67.23753576]
E1 = -40.76241301823325  Ecoul = 16.8311347708884
cycle= 1 E= -23.9312782473448  delta_E= -0.339  |g|= 0.174  |ddm|= 0.887
    CPU time for cycle= 1     92.77 sec, wall time      0.82 sec
  HOMO = -0.409455032796262  LUMO = 0.392533687233843
                  Roothaan           | alpha              | beta
  Highest 2-occ = -0.743796312325993 | -0.766560831407631 | -0.721031793244381
  Lowest 0-occ =   0.392533687233843 |  0.371991708758663 |  0.394811477065206
  1-occ =         -0.409455032796262 | -0.857512209697508 | 0.0679269660003349
  Roothaan mo_energy =
[-1.63710677 -0.74379631 -0.74379631 -0.40945503  0.39253369  0.39253369
  0.39779761  0.55165298  1.05635083  1.05958609  1.05958609  1.06999371
  1.06999371  1.66238401  1.66261769  1.66261769  2.4170211   2.420256
  2.420256    2.43051646  2.43051646  2.44796271  2.44796271  2.94366034
  3.20575308  3.21133868  3.21133868  3.23044927  3.23044927  4.92085035
  4.94855251  4.94855251  5.71682707  5.72010501  5.72010501  5.72995739
  5.72995739  5.74644035  5.74644035  5.76964839  5.76964839  6.91532853
  6.92165834  6.92165834  6.94128503  6.94128503  6.97435048  6.97435048
  8.06454678  8.07664575  8.07664575  8.11306394  8.11306394  9.67183282
 11.70177802 11.70474396 11.70474396 11.71365174 11.71365174 11.72853128
 11.72853128 11.74943335 11.74943335 11.77643069 11.77643069 12.78155096
 12.83912661 12.83912661 15.90308047 15.90858621 15.90858621 15.92510827
 15.92510827 15.95266222 15.95266222 15.99127748 15.99127748 16.53672889
 16.54568589 16.54568589 16.57281563 16.57281563 16.61836031 16.61836031
 18.78311938 18.79999549 18.79999549 18.8512953  18.8512953  25.56171885
 25.56452145 25.56452145 25.57293345 25.57293345 25.58696747 25.58696747
 25.60664467 25.60664467 25.63199491 25.63199491 25.66305702 25.66305702
 27.36855939 31.5759931  31.63478583 31.63478583 33.00861065 33.01290974
 33.01290974 33.02581372 33.02581372 33.04734271 33.04734271 33.07753045
 33.07753045 33.11642459 33.11642459 38.56936797 38.57890743 38.57890743
 38.60758956 38.60758956 38.65555294 38.65555294 39.27486599 39.28118058
 39.28118058 39.30013156 39.30013156 39.33174076 39.33174076 39.37604559
 39.37604559 44.35989056 44.37678    44.37678    44.42783309 44.42783309
 67.17668058]
E1 = -41.146943819725976  Ecoul = 17.210039966027544
cycle= 2 E= -23.9369038536984  delta_E= -0.00563  |g|= 0.0877  |ddm|= 0.19
    CPU time for cycle= 2     94.12 sec, wall time      0.74 sec
  HOMO = -0.356155227760694  LUMO = 0.395328729088278
                  Roothaan           | alpha              | beta
  Highest 2-occ = -0.702538450569598 | -0.712488048629107 |  -0.66599847754515
  Lowest 0-occ =   0.395328729088278 |  0.377393928416955 |  0.401487298762597
  1-occ =         -0.356155227760694 | -0.817313717280964 |  0.134641632568868
  Roothaan mo_energy =
[-1.5916065  -0.70253845 -0.70253845 -0.35615523  0.39532873  0.39765752
  0.39765752  0.5629361   1.06671896  1.06977823  1.06977823  1.07957487
  1.07957487  1.67853402  1.68208425  1.68208425  2.42736407  2.43065877
  2.43065877  2.44062027  2.44062027  2.45755551  2.45755551  2.97261511
  3.23293296  3.23833505  3.23833505  3.25672659  3.25672659  4.96132483
  4.98779313  4.98779313  5.7349118   5.73809093  5.73809093  5.7476477
  5.7476477   5.76364088  5.76364088  5.78617181  5.78617181  6.94678597
  6.95309443  6.95309443  6.97210642  6.97210642  7.00413678  7.00413678
  8.11208467  8.12375521  8.12375521  8.15886704  8.15886704  9.72783201
 11.73001811 11.73288947 11.73288947 11.74151414 11.74151414 11.75592406
 11.75592406 11.77617334 11.77617334 11.80233965 11.80233965 12.84531938
 12.90077959 12.90077959 15.95031791 15.95564564 15.95564564 15.97163645
 15.97163645 15.99831447 15.99831447 16.03572408 16.03572408 16.59476346
 16.60350043 16.60350043 16.62979705 16.62979705 16.67395625 16.67395625
 18.85398701 18.87032578 18.87032578 18.92001612 18.92001612 25.60845754
 25.61116837 25.61116837 25.61930565 25.61930565 25.63288372 25.63288372
 25.65192659 25.65192659 25.67646798 25.67646798 25.7065515  25.7065515
 27.45400217 31.66596324 31.72304677 31.72304677 33.07389988 33.07806766
 33.07806766 33.0905787  33.0905787  33.1114562  33.1114562  33.14073896
 33.14073896 33.17848152 33.17848152 38.65618755 38.66547908 38.66547908
 38.69340284 38.69340284 38.74011472 38.74011472 39.35485947 39.3609982
 39.3609982  39.37942391 39.37942391 39.41016537 39.41016537 39.45327124
 39.45327124 44.45526503 44.47171507 44.47171507 44.52146991 44.52146991
 67.27937026]
E1 = -41.01556209351757  Ecoul = 17.07766841643773
cycle= 3 E= -23.9378936770798  delta_E= -0.00099  |g|= 0.00879  |ddm|= 0.0687
    CPU time for cycle= 3    100.64 sec, wall time      0.80 sec
  HOMO = -0.35991176104737  LUMO = 0.39424192580527
                  Roothaan           | alpha              | beta
  Highest 2-occ =  -0.70640700649991 | -0.731058148587393 | -0.684835551699183
  Lowest 0-occ =    0.39424192580527 |  0.375531200627679 |  0.399386749494577
  1-occ =          -0.35991176104737 | -0.835517637873402 |  0.113450377607619
  Roothaan mo_energy =
[-1.59478107 -0.70640701 -0.70640701 -0.35991176  0.39424193  0.3973774
  0.3973774   0.56261525  1.0664321   1.06940368  1.06940368  1.07900646
  1.07900646  1.67590633  1.68060994  1.68060994  2.42700456  2.43034117
  2.43034117  2.440263    2.440263    2.45713603  2.45713603  2.97070766
  3.23094846  3.23630521  3.23630521  3.25446034  3.25446034  4.95759796
  4.98411963  4.98411963  5.73422282  5.73738525  5.73738525  5.74689136
  5.74689136  5.76279856  5.76279856  5.78520752  5.78520752  6.94474313
  6.9510678   6.9510678   6.96988529  6.96988529  7.00158258  7.00158258
  8.10808048  8.11965158  8.11965158  8.15438736  8.15438736  9.72266286
 11.7286451  11.73149185 11.73149185 11.74004263 11.74004263 11.75432916
 11.75432916 11.77440511 11.77440511 11.80034722 11.80034722 12.83953908
 12.89427955 12.89427955 15.94697838 15.95223266 15.95223266 15.96800347
 15.96800347 15.99431622 15.99431622 16.03121816 16.03121816 16.58992059
 16.59855167 16.59855167 16.62444865 16.62444865 16.66793609 16.66793609
 18.84734061 18.8634227  18.8634227  18.91232218 18.91232218 25.6053563
 25.60803003 25.60803003 25.61605627 25.61605627 25.62945006 25.62945006
 25.64823644 25.64823644 25.67245035 25.67245035 25.70213645 25.70213645
 27.4446695  31.65680116 31.7128857  31.7128857  33.06847313 33.07256949
 33.07256949 33.08486692 33.08486692 33.10539049 33.10539049 33.13418184
 33.13418184 33.17129903 33.17129903 38.64756249 38.65667922 38.65667922
 38.68407272 38.68407272 38.7299076  38.7299076  39.34734093 39.35336394
 39.35336394 39.37144393 39.37144393 39.4016138  39.4016138  39.44392831
 39.44392831 44.44531936 44.46144881 44.46144881 44.5102519  44.5102519
 67.26747639]
E1 = -41.029540771267776  Ecoul = 17.091623201598633
cycle= 4 E= -23.9379175696691  delta_E= -2.39e-05  |g|= 0.0017  |ddm|= 0.0114
    CPU time for cycle= 4     90.96 sec, wall time      0.75 sec
  HOMO = -0.359429462166236  LUMO = 0.393983173254227
                  Roothaan           | alpha              | beta
  Highest 2-occ = -0.706063495565102 | -0.729019292343817 | -0.682714916033484
  Lowest 0-occ =   0.393983173254227 |  0.375578829295306 |  0.399663995799196
  1-occ =         -0.359429462166236 |  -0.83454992241217 |  0.116311592866343
  Roothaan mo_energy =
[-1.5943235  -0.7060635  -0.7060635  -0.35942946  0.39398317  0.3974514
  0.3974514   0.56274682  1.06650126  1.06945927  1.06945927  1.07908993
  1.07908993  1.67556006  1.6808059   1.6808059   2.42703547  2.43037797
  2.43037797  2.440332    2.440332    2.45726346  2.45726346  2.97094996
  3.23106122  3.23643374  3.23643374  3.25465138  3.25465138  4.95762111
  4.98442371  4.98442371  5.73426851  5.73744069  5.73744069  5.74697541
  5.74697541  5.76292827  5.76292827  5.78539719  5.78539719  6.94487093
  6.95120608  6.95120608  6.97005507  6.97005507  7.00180049  7.00180049
  8.10829365  8.11990038  8.11990038  8.1547042   8.1547042   9.72304816
 11.7287384  11.73159135 11.73159135 11.74016038 11.74016038 11.75447622
 11.75447622 11.77459079 11.77459079 11.80057816 11.80057816 12.83989377
 12.89469259 12.89469259 15.94720504 15.95246201 15.95246201 15.96824028
 15.96824028 15.99456344 15.99456344 16.03147583 16.03147583 16.59024502
 16.59887514 16.59887514 16.62476872 16.62476872 16.66824439 16.66824439
 18.8477786  18.8638585  18.8638585  18.91273622 18.91273622 25.60557138
 25.60824654 25.60824654 25.61627698 25.61627698 25.62967751 25.62967751
 25.64847271 25.64847271 25.67269671 25.67269671 25.70239295 25.70239295
 27.44528335 31.65748202 31.71349299 31.71349299 33.06885672 33.07294951
 33.07294951 33.08523623 33.08523623 33.1057419  33.1057419  33.13450796
 33.13450796 33.17159193 33.17159193 38.64819036 38.65728882 38.65728882
 38.68462802 38.68462802 38.73037164 38.73037164 39.3478864  39.35389884
 39.35389884 39.37194722 39.37194722 39.40206452 39.40206452 39.44430535
 39.44430535 44.446051   44.46214491 44.46214491 44.51083986 44.51083986
 67.26828577]
E1 = -41.02793509770471  Ecoul = 17.090016909678354
cycle= 5 E= -23.9379181880264  delta_E= -6.18e-07  |g|= 8.23e-05  |ddm|= 0.0019
    CPU time for cycle= 5     87.28 sec, wall time      0.69 sec
  HOMO = -0.359448423619421  LUMO = 0.393976322416618
                  Roothaan           | alpha              | beta
  Highest 2-occ = -0.706069363434912 | -0.729222445933668 | -0.682910236920158
  Lowest 0-occ =   0.393976322416618 |  0.375525422086896 |  0.399648685980381
  1-occ =         -0.359448423619421 | -0.834956280649776 |  0.116091574981397
  Roothaan mo_energy =
[-1.59434543 -0.70606936 -0.70606936 -0.35944842  0.39397632  0.39745077
  0.39745077  0.56273563  1.0664895   1.06944857  1.06944857  1.07907877
  1.07907877  1.67552389  1.68079877  1.68079877  2.42702099  2.4303642
  2.4303642   2.44031971  2.44031971  2.45725342  2.45725342  2.97093156
  3.23104405  3.23641691  3.23641691  3.25463522  3.25463522  4.95759128
  4.98440873  4.98440873  5.73424769  5.73742016  5.73742016  5.74695578
  5.74695578  5.76291018  5.76291018  5.78538125  5.78538125  6.94484976
  6.95118423  6.95118423  6.97003296  6.97003296  7.00177802  7.00177802
  8.10827161  8.11987803  8.11987803  8.15468153  8.15468153  9.72302581
 11.72871318 11.73156621 11.73156621 11.74013546 11.74013546 11.75445166
 11.75445166 11.77456674 11.77456674 11.8005548  11.8005548  12.83987465
 12.89467003 12.89467003 15.9471824  15.95243884 15.95243884 15.96821552
 15.96821552 15.99453605 15.99453605 16.03144469 16.03144469 16.59022578
 16.59885468 16.59885468 16.62474441 16.62474441 16.66821355 16.66821355
 18.84776213 18.8638394  18.8638394  18.91270877 18.91270877 25.60554661
 25.60822155 25.60822155 25.6162513  25.6162513  25.62965065 25.62965065
 25.64844413 25.64844413 25.67266589 25.67266589 25.70235938 25.70235938
 27.44526528 31.65747209 31.71347036 31.71347036 33.0688391  33.07293112
 33.07293112 33.08521549 33.08521549 33.1057172  33.1057172  33.13447766
 33.13447766 33.17155439 33.17155439 38.64818036 38.65727638 38.65727638
 38.68460805 38.68460805 38.730339   38.730339   39.34787476 39.35388567
 39.35388567 39.37192941 39.37192941 39.40203892 39.40203892 39.44426879
 39.44426879 44.4460423  44.46213157 44.46213157 44.51081235 44.51081235
 67.26827127]
E1 = -41.027923348571235  Ecoul = 17.09000515757545
cycle= 6 E= -23.9379181909958  delta_E= -2.97e-09  |g|= 1.44e-05  |ddm|= 0.000159
    CPU time for cycle= 6     95.72 sec, wall time      0.76 sec
  HOMO = -0.359443641492153  LUMO = 0.393969787687405
                  Roothaan           | alpha              | beta
  Highest 2-occ = -0.706065115622112 | -0.729220001730719 | -0.682906754335717
  Lowest 0-occ =   0.393969787687405 |   0.37552206375495 |  0.399649485523807
  1-occ =         -0.359443641492153 | -0.834975504011631 |  0.116092573784839
  Roothaan mo_energy =
[-1.59434453 -0.70606512 -0.70606512 -0.35944364  0.39396979  0.39745162
  0.39745162  0.56273608  1.06649072  1.06944964  1.06944964  1.07907936
  1.07907936  1.67552417  1.68080065  1.68080065  2.42702196  2.43036516
  2.43036516  2.44032067  2.44032067  2.45725439  2.45725439  2.97093278
  3.23104563  3.23641869  3.23641869  3.25463719  3.25463719  4.95759353
  4.9844111   4.9844111   5.73424946  5.73742191  5.73742191  5.74695744
  5.74695744  5.76291169  5.76291169  5.78538262  5.78538262  6.9448524
  6.95118687  6.95118687  6.97003527  6.97003527  7.00177981  7.00177981
  8.10827476  8.11988098  8.11988098  8.15468386  8.15468386  9.72302827
 11.72871604 11.73156901 11.73156901 11.74013808 11.74013808 11.75445401
 11.75445401 11.77456872 11.77456872 11.80055637 11.80055637 12.83987837
 12.89467243 12.89467243 15.94718652 15.9524428  15.9524428  15.96821904
 15.96821904 15.99453883 15.99453883 16.03144653 16.03144653 16.59023003
 16.59885868 16.59885868 16.62474763 16.62474763 16.66821556 16.66821556
 18.84776629 18.86384304 18.86384304 18.91271099 18.91271099 25.60555097
 25.60822582 25.60822582 25.61625532 25.61625532 25.62965427 25.62965427
 25.64844721 25.64844721 25.67266831 25.67266831 25.70236104 25.70236104
 27.44526785 31.65747599 31.71347248 31.71347248 33.06884408 33.07293595
 33.07293595 33.0852199  33.0852199  33.10572092 33.10572092 33.13448045
 33.13448045 33.17155603 33.17155603 38.64818487 38.65728055 38.65728055
 38.68461126 38.68461126 38.73034066 38.73034066 39.34787964 39.35389033
 39.35389033 39.37193343 39.37193343 39.4020419  39.4020419  39.44427036
 39.44427036 44.44604634 44.46213502 44.46213502 44.51081412 44.51081412
 67.26827333]
E1 = -41.02789838194985  Ecoul = 17.08998019087221
cycle= 7 E= -23.9379181910776  delta_E= -8.19e-11  |g|= 2.77e-06  |ddm|= 3.13e-05
    CPU time for cycle= 7     93.22 sec, wall time      0.74 sec
  HOMO = -0.359445543663767  LUMO = 0.393970911564035
                  Roothaan           | alpha              | beta
  Highest 2-occ = -0.706066553527555 | -0.729223158007987 | -0.682909949047117
  Lowest 0-occ =   0.393970911564035 |  0.375521484377286 |  0.399649063310257
  1-occ =         -0.359445543663767 |  -0.83497933258427 |  0.116088788355877
  Roothaan mo_energy =
[-1.59434623 -0.70606655 -0.70606655 -0.35944554  0.39397091  0.39745134
  0.39745134  0.56273539  1.06649007  1.06944899  1.06944899  1.07907876
  1.07907876  1.67552285  1.68079983  1.68079983  2.42702125  2.43036446
  2.43036446  2.44031998  2.44031998  2.45725372  2.45725372  2.97093161
  3.23104451  3.23641757  3.23641757  3.25463605  3.25463605  4.95759205
  4.98440971  4.98440971  5.73424838  5.73742083  5.73742083  5.74695637
  5.74695637  5.76291066  5.76291066  5.78538162  5.78538162  6.94485097
  6.95118545  6.95118545  6.97003389  6.97003389  7.00177849  7.00177849
  8.10827303  8.11987929  8.11987929  8.15468225  8.15468225  9.72302645
 11.72871459 11.73156756 11.73156756 11.74013665 11.74013665 11.75445261
 11.75445261 11.77456737 11.77456737 11.80055507 11.80055507 12.83987639
 12.89467057 12.89467057 15.94718467 15.95244096 15.95244096 15.96821723
 15.96821723 15.99453708 15.99453708 16.03144486 16.03144486 16.59022805
 16.59885671 16.59885671 16.62474572 16.62474572 16.66821374 16.66821374
 18.84776417 18.86384095 18.86384095 18.91270901 18.91270901 25.60554907
 25.60822393 25.60822393 25.61625344 25.61625344 25.62965242 25.62965242
 25.64844541 25.64844541 25.67266656 25.67266656 25.70235935 25.70235935
 27.44526568 31.65747368 31.71347028 31.71347028 33.06884192 33.07293379
 33.07293379 33.08521777 33.08521777 33.10571883 33.10571883 33.13447842
 33.13447842 33.17155409 33.17155409 38.64818253 38.65727823 38.65727823
 38.68460899 38.68460899 38.73033848 38.73033848 39.34787734 39.35388804
 39.35388804 39.37193117 39.37193117 39.4020397  39.4020397  39.44426825
 39.44426825 44.44604395 44.46213265 44.46213265 44.51081185 44.51081185
 67.26827102]
E1 = -41.027904107802726  Ecoul = 17.0899859167219
Extra cycle  E= -23.9379181910808  delta_E= -3.18e-12  |g|= 1.33e-06  |ddm|= 7.53e-06
    CPU time for scf_cycle    996.32 sec, wall time      8.70 sec
    CPU time for SCF    996.38 sec, wall time      8.70 sec
converged SCF energy = -23.9379181910808
