#INFO: **** input file is /home/nkousuke/lustre/toBeSync/turboRVB/05turbo-genius-development/turbogenius_paper/04data/sanity_checks/03pyscf_HF_turbo_VMC_via_trexio/00open_boundary/results/Li2/pyscf-HF-workflow/run.py ****

from pyscf_wrapper import Pyscf_wrapper

# input variables
pyscf_chkfile="pyscf.chk"
structure_file="Li2.xyz"

# input variables
omp_num_threads=128
charge=0
spin=0
basis="ccecp-ccpvqz"
ecp="ccecp"
scf_method="HF"
dft_xc="NA"
solver_newton=False
MP2_flag=False
CCSD_flag=False
pyscf_output="out.pyscf"
twist_average=False
exp_to_discard=0.0
kpt=[0.0, 0.0, 0.0]
kpt_grid=[1, 1, 1]
smearing_method="fermi"
smearing_sigma=0.0

pyscf_calc=Pyscf_wrapper(
                        structure_file=structure_file,
                        chkfile=pyscf_chkfile,
                        )

pyscf_calc.run_pyscf(
                  omp_num_threads=omp_num_threads,
                  charge=charge,
                  spin=spin,
                  basis=basis,
                  ecp=ecp,
                  scf_method=scf_method,
                  dft_xc=dft_xc,
                  solver_newton=solver_newton,
                  MP2_flag=MP2_flag,
                  CCSD_flag=CCSD_flag,
                  pyscf_output=pyscf_output,
                  twist_average=twist_average,
                  exp_to_discard=exp_to_discard,
                  kpt=kpt,
                  kpt_grid=kpt_grid,
                  smearing_method=smearing_method,
                  smearing_sigma=smearing_sigma
                  )
                #INFO: ******************** input file end ********************


System: uname_result(system='Linux', node='spcc-145', release='5.4.0-66-generic', version='#74-Ubuntu SMP Wed Jan 27 22:54:38 UTC 2021', machine='x86_64', processor='x86_64')  Threads 128
Python 3.7.3 (default, Mar 27 2019, 22:11:17) 
[GCC 7.3.0]
numpy 1.20.1  scipy 1.7.3
Date: Mon Dec 19 18:04:57 2022
PySCF version 2.0.1
PySCF path  /home/nkousuke/application/anaconda3/lib/python3.7/site-packages/pyscf

[CONFIG] conf_file /home/nkousuke/.pyscf_conf.py
[INPUT] verbose = 5
[INPUT] max_memory = 506594.6640625 
[INPUT] num. atoms = 2
[INPUT] num. electrons = 2
[INPUT] charge = 0
[INPUT] spin (= nelec alpha-beta = 2S) = 0
[INPUT] symmetry False subgroup None
[INPUT] Mole.unit = A
[INPUT]  1 Li     0.000000000000   0.000000000000   1.336650000000 AA    0.000000000000   0.000000000000   2.525902424400 Bohr
[INPUT]  2 Li     0.000000000000   0.000000000000  -1.336650000000 AA    0.000000000000   0.000000000000  -2.525902424400 Bohr
[INPUT] ---------------- BASIS SET ---------------- 
[INPUT] l, kappa, [nprim/nctr], expnt,             c_1 c_2 ...
[INPUT] Li
[INPUT] 0    0    [10   /1   ]  16.001258         4.34e-05
                                7.583113          -0.0007531
                                3.593693          -0.0002519
                                1.703077          0.0169674
                                0.807101          -0.0909921
                                0.382491          -0.0893155
                                0.181265          0.0294155
                                0.085903          0.364402
                                0.04071           0.5504973
                                0.019293          0.1744412
[INPUT] 0    0    [1    /1   ]  0.519693             1
[INPUT] 0    0    [1    /1   ]  0.10977              1
[INPUT] 0    0    [1    /1   ]  0.024834             1
[INPUT] 1    0    [10   /1   ]  7.004881          -0.0005306
                                3.451199          0.0012949
                                1.700353          0.0070115
                                0.837738          0.0171604
                                0.412741          0.036724
                                0.203351          0.0965042
                                0.100188          0.2211013
                                0.049361          0.3835358
                                0.02432           0.3350564
                                0.011982          0.0781453
[INPUT] 1    0    [1    /1   ]  0.207505             1
[INPUT] 1    0    [1    /1   ]  0.115823             1
[INPUT] 1    0    [1    /1   ]  0.070662             1
[INPUT] 2    0    [1    /1   ]  0.21499              1
[INPUT] 2    0    [1    /1   ]  0.089353             1
[INPUT] 2    0    [1    /1   ]  0.029817             1
[INPUT] 3    0    [1    /1   ]  0.240323             1
[INPUT] 3    0    [1    /1   ]  0.09993              1
[INPUT] 4    0    [1    /1   ]  0.19957              1

nuclear repulsion = 0.197949055818651
number of shells = 28
number of NR pGTOs = 180
number of NR cGTOs = 108
basis = ccecp-ccpvqz
ecp = ccecp
CPU time:         5.17


******** <class 'pyscf.scf.hf.RHF'> ********
method = RHF
initial guess = minao
damping factor = 0
level_shift factor = 0
DIIS = <class 'pyscf.scf.diis.CDIIS'>
diis_start_cycle = 1
diis_space = 8
SCF conv_tol = 1e-09
SCF conv_tol_grad = None
SCF max_cycles = 200
direct_scf = True
direct_scf_tol = 1e-13
chkfile to save SCF result = pyscf.chk
max_memory 506594 MB (current use 106 MB)
Set gradient conv threshold to 3.16228e-05
E1 = -0.7547960363030191  E_coul = 0.24895290220670308
init E= -0.307894078277665
cond(S) = 136996.97128836432
    CPU time for initialize scf    129.86 sec, wall time      1.28 sec
  HOMO = -0.166715343539522  LUMO = -0.0199097180323875
  mo_energy =
[-0.16671534 -0.01990972  0.01948076  0.01948076  0.04049554  0.06406106
  0.06406106  0.07427375  0.08537942  0.08537942  0.08820395  0.10240668
  0.10240668  0.11700278  0.11700278  0.11843505  0.13088835  0.13088835
  0.13296947  0.16775647  0.16775647  0.25537391  0.28821231  0.28911601
  0.28911601  0.3015043   0.3015043   0.31656065  0.34776255  0.34925004
  0.34925004  0.35968841  0.35968841  0.36886979  0.36886979  0.37441776
  0.37441776  0.39034721  0.40408162  0.40408162  0.41820103  0.41820103
  0.44522777  0.44522777  0.47265693  0.53299137  0.53299137  0.53679602
  0.54406477  0.54406477  0.54538363  0.63827903  0.63827903  0.64770073
  0.80683138  0.80683138  0.82749808  0.82929889  0.82929889  0.84790708
  0.84790708  0.85771933  0.85771933  0.8675362   0.87466365  0.88737865
  0.88737865  0.89858989  0.89858989  0.96353751  0.97843971  0.97843971
  1.00259138  1.00259138  1.04223185  1.04223185  1.06738758  1.06738758
  1.06855008  1.08242197  1.08242197  1.17751868  1.17751868  1.18814725
  1.18814725  1.19967005  1.21663578  1.21663578  1.2337535   1.2337535
  1.2384328   1.2384328   1.24552682  1.25283778  1.25283778  1.30689358
  1.30689358  1.4348176   1.44746095  1.44746095  1.51136515  1.51136515
  1.52542361  1.60487481  1.78781195  1.78781195  2.52379299  3.27525336]
E1 = -0.8215248359306284  E_coul = 0.22517017756759042
cycle= 1 E= -0.398405602544387  delta_E= -0.0905  |g|= 0.0218  |ddm|= 1.18
    CPU time for cycle= 1     69.15 sec, wall time      0.54 sec
  HOMO = -0.185935265760736  LUMO = 0.00591698030075603
  mo_energy =
[-0.18593527  0.00591698  0.02655531  0.02655531  0.04271277  0.06509166
  0.06509166  0.07898995  0.09077234  0.09077234  0.09198003  0.10720864
  0.10720864  0.11816904  0.11816904  0.12012508  0.1368312   0.1368312
  0.13787411  0.17548243  0.17548243  0.26105723  0.30414518  0.30414518
  0.307324    0.31138763  0.31138763  0.31587117  0.34688193  0.3548341
  0.3548341   0.36065796  0.36065796  0.38196605  0.38196605  0.38579845
  0.38579845  0.39233326  0.41246633  0.41246633  0.42528553  0.42528553
  0.45265356  0.45265356  0.48603006  0.54123108  0.54123108  0.54700064
  0.55058984  0.55058984  0.5549069   0.64371189  0.64371189  0.65582073
  0.81740195  0.81740195  0.82613433  0.85945147  0.85945147  0.86942276
  0.86942276  0.87102562  0.87102562  0.88551381  0.90464243  0.90585467
  0.90585467  0.91403546  0.91403546  0.96594588  1.00108392  1.00108392
  1.01973787  1.01973787  1.04601222  1.04601222  1.07531958  1.0966462
  1.0966462   1.09803396  1.09803396  1.19308608  1.19308608  1.19760933
  1.20164885  1.20164885  1.22010237  1.22010237  1.24235411  1.24235411
  1.24718613  1.25377404  1.25377404  1.25939621  1.25939621  1.30446399
  1.30446399  1.44880541  1.46251258  1.46251258  1.53714028  1.53714028
  1.55364917  1.64586972  1.82390829  1.82390829  2.55019879  3.30093506]
E1 = -0.827515222160509  E_coul = 0.23020575314272654
cycle= 2 E= -0.399360413199131  delta_E= -0.000955  |g|= 0.00833  |ddm|= 0.15
    CPU time for cycle= 2     67.48 sec, wall time      0.53 sec
  HOMO = -0.18224812005244  LUMO = 0.00795110074868124
  mo_energy =
[-0.18224812  0.0079511   0.02896579  0.02896579  0.04239489  0.06526274
  0.06526274  0.0805692   0.09228725  0.09234716  0.09234716  0.10852717
  0.10852717  0.11853013  0.11853013  0.12055438  0.13845207  0.13886583
  0.13886583  0.17740494  0.17740494  0.26212438  0.30818025  0.30818025
  0.31179461  0.31393988  0.31393988  0.3164107   0.34676139  0.35634472
  0.35634472  0.36094098  0.36094098  0.38565877  0.38565877  0.38919939
  0.38919939  0.39326218  0.4150078   0.4150078   0.42762243  0.42762243
  0.45481119  0.45481119  0.48902656  0.54375194  0.54375194  0.55039394
  0.55262508  0.55262508  0.5577125   0.64537537  0.64537537  0.65804712
  0.82043576  0.82043576  0.8258362   0.86777181  0.86777181  0.8728524
  0.8728524   0.87719148  0.87719148  0.89069282  0.91116777  0.91116777
  0.91277733  0.91838013  0.91838013  0.96710777  1.00727643  1.00727643
  1.0246399   1.0246399   1.04729473  1.04729473  1.0775613   1.1007591
  1.1007591   1.10694441  1.10694441  1.19730252  1.19784188  1.19784188
  1.2056288   1.2056288   1.22123327  1.22123327  1.24385024  1.24385024
  1.24801235  1.25429353  1.25429353  1.26673395  1.26673395  1.30420381
  1.30420381  1.45298305  1.4673363   1.4673363   1.54462358  1.54462358
  1.56199424  1.6576344   1.83417366  1.83417366  2.55798423  3.30851365]
E1 = -0.8304754224566074  E_coul = 0.23297014455445691
cycle= 3 E= -0.399556222083499  delta_E= -0.000196  |g|= 0.00113  |ddm|= 0.0988
    CPU time for cycle= 3     63.43 sec, wall time      0.50 sec
  HOMO = -0.182166685532224  LUMO = 0.00787912515944785
  mo_energy =
[-0.18216669  0.00787913  0.02882136  0.02882136  0.04204731  0.06516729
  0.06516729  0.08064335  0.0921138   0.0923733   0.0923733   0.10838709
  0.10838709  0.11851483  0.11851483  0.12050723  0.13802146  0.13884363
  0.13884363  0.17721157  0.17721157  0.26180924  0.30806038  0.30806038
  0.31154223  0.31364511  0.31364511  0.31621944  0.34643944  0.35616611
  0.35616611  0.36063025  0.36063025  0.38561857  0.38561857  0.38901113
  0.38901113  0.39297862  0.41481078  0.41481078  0.42744288  0.42744288
  0.454738    0.454738    0.488654    0.54349421  0.54349421  0.55019417
  0.55248831  0.55248831  0.55753491  0.64519213  0.64519213  0.65766932
  0.8201372   0.8201372   0.82540357  0.86733971  0.86733971  0.87247037
  0.87247037  0.87682402  0.87682402  0.89021062  0.91081407  0.91081407
  0.91236139  0.91800718  0.91800718  0.96660088  1.00697194  1.00697194
  1.02443841  1.02443841  1.04688553  1.04688553  1.07715842  1.10054562
  1.10054562  1.10651282  1.10651282  1.19685109  1.19749135  1.19749135
  1.2050764   1.2050764   1.22087073  1.22087073  1.24342901  1.24342901
  1.24748244  1.2538371   1.2538371   1.26642179  1.26642179  1.30372436
  1.30372436  1.45255965  1.46687629  1.46687629  1.54419682  1.54419682
  1.56142666  1.65700898  1.83360656  1.83360656  2.55731725  3.30785714]
E1 = -0.8304827259756938  E_coul = 0.23297385245763688
cycle= 4 E= -0.399559817699406  delta_E= -3.6e-06  |g|= 0.000163  |ddm|= 0.0121
    CPU time for cycle= 4     69.04 sec, wall time      0.54 sec
  HOMO = -0.182294499575488  LUMO = 0.00784160162622879
  mo_energy =
[-0.1822945   0.0078416   0.02876924  0.02876924  0.04204199  0.06514642
  0.06514642  0.08063784  0.09206996  0.09236366  0.09236366  0.10835465
  0.10835465  0.11850873  0.11850873  0.12049477  0.13799186  0.1388211
  0.1388211   0.17715895  0.17715895  0.26174828  0.30801026  0.30801026
  0.31147491  0.31357987  0.31357987  0.31616971  0.34638542  0.3561239
  0.3561239   0.36057281  0.36057281  0.38558273  0.38558273  0.38894914
  0.38894914  0.3929265   0.41475406  0.41475406  0.42739485  0.42739485
  0.45470887  0.45470887  0.48857316  0.54343149  0.54343149  0.55013253
  0.55244795  0.55244795  0.5574798   0.64514655  0.64514655  0.65758822
  0.82005741  0.82005741  0.82532951  0.86720492  0.86720492  0.8723751
  0.8723751   0.87671412  0.87671412  0.8900888   0.9107118   0.9107118
  0.91223348  0.91790939  0.91790939  0.96650193  1.00687674  1.00687674
  1.02436892  1.02436892  1.04680369  1.04680369  1.07706628  1.10048033
  1.10048033  1.1063775   1.1063775   1.19677181  1.19739689  1.19739689
  1.20495329  1.20495329  1.22080182  1.22080182  1.24334513  1.24334513
  1.24738337  1.25375474  1.25375474  1.2663155   1.2663155   1.30364185
  1.30364185  1.45245553  1.46676315  1.46676315  1.54407143  1.54407143
  1.56126883  1.65681762  1.83343798  1.83343798  2.55712899  3.30766677]
E1 = -0.8304400821835727  E_coul = 0.23293114988805327
cycle= 5 E= -0.399559876476868  delta_E= -5.88e-08  |g|= 2.66e-05  |ddm|= 0.00139
    CPU time for cycle= 5     70.83 sec, wall time      0.57 sec
  HOMO = -0.182287002330672  LUMO = 0.00784103502907399
  mo_energy =
[-0.182287    0.00784104  0.02876567  0.02876567  0.04203489  0.06514463
  0.06514463  0.08063816  0.09206581  0.09236217  0.09236217  0.10835214
  0.10835214  0.11850784  0.11850784  0.12049416  0.13798305  0.13882122
  0.13882122  0.17715605  0.17715605  0.26174377  0.30800689  0.30800689
  0.31146986  0.31357552  0.31357552  0.31616601  0.34638177  0.35612046
  0.35612046  0.36056866  0.36056866  0.38557871  0.38557871  0.38894567
  0.38894567  0.39292225  0.41475083  0.41475083  0.42739037  0.42739037
  0.45470535  0.45470535  0.48856824  0.54342628  0.54342628  0.5501287
  0.5524437   0.5524437   0.55747674  0.64514241  0.64514241  0.65758295
  0.82005421  0.82005421  0.8253263   0.86719912  0.86719912  0.87237091
  0.87237091  0.87670858  0.87670858  0.89008412  0.91070669  0.91070669
  0.91222773  0.9179042   0.9179042   0.96649822  1.00687014  1.00687014
  1.02436268  1.02436268  1.04680002  1.04680002  1.07706314  1.10047428
  1.10047428  1.10637044  1.10637044  1.1967686   1.19739087  1.19739087
  1.20494826  1.20494826  1.22079714  1.22079714  1.24334021  1.24334021
  1.24737855  1.25375044  1.25375044  1.26630813  1.26630813  1.30363756
  1.30363756  1.45244953  1.46675727  1.46675727  1.54406437  1.54406437
  1.56126354  1.65681172  1.8334314   1.8334314   2.55712446  3.30766262]
E1 = -0.8304387018195575  E_coul = 0.23292976757992656
cycle= 6 E= -0.39955987842098  delta_E= -1.94e-09  |g|= 2.03e-06  |ddm|= 0.00029
    CPU time for cycle= 6     54.22 sec, wall time      0.43 sec
  HOMO = -0.182289741801653  LUMO = 0.00784096515265737
  mo_energy =
[-0.18228974  0.00784097  0.02876566  0.02876566  0.04203621  0.06514463
  0.06514463  0.08063812  0.09206564  0.09236229  0.09236229  0.10835225
  0.10835225  0.11850789  0.11850789  0.12049417  0.13798438  0.13882127
  0.13882127  0.17715607  0.17715607  0.26174388  0.30800716  0.30800716
  0.3114702   0.31357577  0.31357577  0.31616603  0.34638184  0.35612059
  0.35612059  0.36056868  0.36056868  0.385579    0.385579    0.38894582
  0.38894582  0.39292246  0.41475096  0.41475096  0.42739059  0.42739059
  0.45470556  0.45470556  0.48856848  0.54342651  0.54342651  0.55012888
  0.55244388  0.55244388  0.55747686  0.64514256  0.64514256  0.65758314
  0.82005436  0.82005436  0.82532623  0.86719958  0.86719958  0.87237108
  0.87237108  0.87670894  0.87670894  0.8900844   0.91070702  0.91070702
  0.91222821  0.91790449  0.91790449  0.96649821  1.00687056  1.00687056
  1.0243631   1.0243631   1.04680007  1.04680007  1.07706317  1.10047467
  1.10047467  1.10637101  1.10637101  1.19676846  1.19739126  1.19739126
  1.20494843  1.20494843  1.22079729  1.22079729  1.2433403   1.2433403
  1.24737853  1.25375045  1.25375045  1.26630868  1.26630868  1.30363747
  1.30363747  1.45244978  1.46675756  1.46675756  1.54406488  1.54406488
  1.56126396  1.65681234  1.83343202  1.83343202  2.55712468  3.30766282]
E1 = -0.8304384896369331  E_coul = 0.23292955538772772
cycle= 7 E= -0.399559878430554  delta_E= -9.57e-12  |g|= 2.08e-07  |ddm|= 2.18e-05
    CPU time for cycle= 7     60.34 sec, wall time      0.47 sec
  HOMO = -0.182289689430767  LUMO = 0.00784099850381062
  mo_energy =
[-0.18228969  0.007841    0.02876569  0.02876569  0.04203622  0.06514465
  0.06514465  0.08063813  0.09206565  0.0923623   0.0923623   0.10835226
  0.10835226  0.1185079   0.1185079   0.12049419  0.13798439  0.13882129
  0.13882129  0.1771561   0.1771561   0.26174391  0.30800719  0.30800719
  0.31147023  0.31357581  0.31357581  0.31616605  0.34638187  0.35612062
  0.35612062  0.36056871  0.36056871  0.38557902  0.38557902  0.38894586
  0.38894586  0.3929225   0.41475099  0.41475099  0.42739062  0.42739062
  0.45470559  0.45470559  0.48856852  0.54342655  0.54342655  0.55012891
  0.5524439   0.5524439   0.55747689  0.64514258  0.64514258  0.65758319
  0.82005441  0.82005441  0.82532627  0.86719964  0.86719964  0.87237114
  0.87237114  0.876709    0.876709    0.89008445  0.91070707  0.91070707
  0.91222827  0.91790455  0.91790455  0.96649826  1.00687061  1.00687061
  1.02436314  1.02436314  1.04680011  1.04680011  1.07706322  1.10047471
  1.10047471  1.10637107  1.10637107  1.19676851  1.19739131  1.19739131
  1.2049485   1.2049485   1.22079734  1.22079734  1.24334035  1.24334035
  1.24737858  1.2537505   1.2537505   1.26630873  1.26630873  1.30363752
  1.30363752  1.45244983  1.46675762  1.46675762  1.54406494  1.54406494
  1.56126403  1.65681242  1.8334321   1.8334321   2.55712478  3.30766292]
E1 = -0.8304385101777031  E_coul = 0.2329295759284253
Extra cycle  E= -0.399559878430627  delta_E= -7.24e-14  |g|= 5.89e-08  |ddm|= 4.34e-06
    CPU time for scf_cycle    656.35 sec, wall time      5.43 sec
    CPU time for SCF    656.37 sec, wall time      5.43 sec
converged SCF energy = -0.399559878430627
