#INFO: **** input file is /home/nkousuke/lustre/toBeSync/turboRVB/05turbo-genius-development/turbogenius_paper/04data/sanity_checks/03pyscf_HF_turbo_VMC_via_trexio/00open_boundary/results/Sc/pyscf-HF-workflow/run.py ****

from pyscf_wrapper import Pyscf_wrapper

# input variables
pyscf_chkfile="pyscf.chk"
structure_file="Sc.xyz"

# input variables
omp_num_threads=128
charge=0
spin=1
basis="ccecp-ccpvtz"
ecp="ccecp"
scf_method="HF"
dft_xc="NA"
solver_newton=False
MP2_flag=False
CCSD_flag=False
pyscf_output="out.pyscf"
twist_average=False
exp_to_discard=0.0
kpt=[0.0, 0.0, 0.0]
kpt_grid=[1, 1, 1]
smearing_method="fermi"
smearing_sigma=0.0

pyscf_calc=Pyscf_wrapper(
                        structure_file=structure_file,
                        chkfile=pyscf_chkfile,
                        )

pyscf_calc.run_pyscf(
                  omp_num_threads=omp_num_threads,
                  charge=charge,
                  spin=spin,
                  basis=basis,
                  ecp=ecp,
                  scf_method=scf_method,
                  dft_xc=dft_xc,
                  solver_newton=solver_newton,
                  MP2_flag=MP2_flag,
                  CCSD_flag=CCSD_flag,
                  pyscf_output=pyscf_output,
                  twist_average=twist_average,
                  exp_to_discard=exp_to_discard,
                  kpt=kpt,
                  kpt_grid=kpt_grid,
                  smearing_method=smearing_method,
                  smearing_sigma=smearing_sigma
                  )
                #INFO: ******************** input file end ********************


System: uname_result(system='Linux', node='spcc-238', release='5.4.0-66-generic', version='#74-Ubuntu SMP Wed Jan 27 22:54:38 UTC 2021', machine='x86_64', processor='x86_64')  Threads 128
Python 3.7.3 (default, Mar 27 2019, 22:11:17) 
[GCC 7.3.0]
numpy 1.20.1  scipy 1.7.3
Date: Mon Dec 19 18:09:39 2022
PySCF version 2.0.1
PySCF path  /home/nkousuke/application/anaconda3/lib/python3.7/site-packages/pyscf

[CONFIG] conf_file /home/nkousuke/.pyscf_conf.py
[INPUT] verbose = 5
[INPUT] max_memory = 506305.75 
[INPUT] num. atoms = 1
[INPUT] num. electrons = 11
[INPUT] charge = 0
[INPUT] spin (= nelec alpha-beta = 2S) = 1
[INPUT] symmetry False subgroup None
[INPUT] Mole.unit = A
[INPUT]  1 Sc     0.000000000000   0.000000000000   0.000000000000 AA    0.000000000000   0.000000000000   0.000000000000 Bohr
[INPUT] ---------------- BASIS SET ---------------- 
[INPUT] l, kappa, [nprim/nctr], expnt,             c_1 c_2 ...
[INPUT] Sc
[INPUT] 0    0    [13   /1   ]  66.882574         0.000553
                                33.776681         -0.005115
                                18.185884         0.004161
                                11.748619         0.121603
                                6.89519           -0.270137
                                3.222124          -0.32441
                                1.77212           0.291162
                                0.841163          0.628931
                                0.471976          0.273406
                                0.313224          0.135352
                                0.101013          0.008041
                                0.049071          -0.00261
                                0.022782          0.000597
[INPUT] 0    0    [13   /1   ]  66.882574         -0.000139
                                33.776681         0.001345
                                18.185884         -0.001445
                                11.748619         -0.032082
                                6.89519           0.075506
                                3.222124          0.089927
                                1.77212           -0.090086
                                0.841163          -0.216444
                                0.471976          -0.17925
                                0.313224          -0.12816
                                0.101013          0.337935
                                0.049071          0.609181
                                0.022782          0.244181
[INPUT] 0    0    [13   /1   ]  66.882574         -0.000679
                                33.776681         0.005456
                                18.185884         -0.016684
                                11.748619         -0.031739
                                6.89519           0.10956
                                3.222124          0.233293
                                1.77212           -0.310207
                                0.841163          -0.245083
                                0.471976          -1.175248
                                0.313224          1.032359
                                0.101013          1.599039
                                0.049071          -0.62399
                                0.022782          -0.847498
[INPUT] 0    0    [13   /1   ]  66.882574         -0.001452
                                33.776681         0.011362
                                18.185884         -0.039876
                                11.748619         -0.02581
                                6.89519           0.157943
                                3.222124          0.452868
                                1.77212           -0.766587
                                0.841163          -0.6078
                                0.471976          -1.716002
                                0.313224          3.614003
                                0.101013          -0.56948
                                0.049071          -2.255967
                                0.022782          1.91016
[INPUT] 0    0    [1    /1   ]  0.022782             1
[INPUT] 1    0    [13   /1   ]  77.690832         8.8e-05
                                39.751864         -0.000754
                                20.615633         0.006584
                                11.53715          -0.007189
                                7.597186          -0.068903
                                3.765117          -0.013842
                                2.051006          0.248704
                                1.048648          0.434328
                                0.550231          0.326906
                                0.30384           0.104617
                                0.165809          0.018512
                                0.060419          0.001395
                                0.024751          9.3e-05
[INPUT] 1    0    [13   /1   ]  77.690832         1.7e-05
                                39.751864         -2.6e-05
                                20.615633         -0.000861
                                11.53715          -0.000483
                                7.597186          0.021364
                                3.765117          -0.003706
                                2.051006          -0.058718
                                1.048648          -0.143364
                                0.550231          -0.07728
                                0.30384           -0.107764
                                0.165809          0.322859
                                0.060419          0.621726
                                0.024751          0.253787
[INPUT] 1    0    [13   /1   ]  77.690832         -6.3e-05
                                39.751864         0.000549
                                20.615633         -0.00512
                                11.53715          0.007011
                                7.597186          0.053661
                                3.765117          0.003574
                                2.051006          -0.235861
                                1.048648          -0.494801
                                0.550231          -0.229575
                                0.30384           0.917973
                                0.165809          0.621155
                                0.060419          -0.824648
                                0.024751          -0.157592
[INPUT] 1    0    [13   /1   ]  77.690832         -0.000243
                                39.751864         0.001568
                                20.615633         -0.009554
                                11.53715          0.01802
                                7.597186          0.051008
                                3.765117          0.04328
                                2.051006          -0.404178
                                1.048648          -0.824904
                                0.550231          0.710014
                                0.30384           2.225255
                                0.165809          -2.742903
                                0.060419          0.581423
                                0.024751          0.48091
[INPUT] 1    0    [1    /1   ]  0.024751             1
[INPUT] 2    0    [11   /1   ]  60.996829         5.6e-05
                                22.097637         0.005054
                                10.186744         0.032223
                                4.633892          0.082479
                                2.146927          0.159363
                                1.014536          0.228604
                                0.487206          0.243691
                                0.248191          0.231651
                                0.131273          0.195431
                                0.063714          0.214589
                                0.021542          0.074113
[INPUT] 2    0    [11   /1   ]  60.996829         -7.2e-05
                                22.097637         -0.006079
                                10.186744         -0.039054
                                4.633892          -0.100652
                                2.146927          -0.19433
                                1.014536          -0.253556
                                0.487206          -0.213556
                                0.248191          0.054182
                                0.131273          0.261188
                                0.063714          0.520215
                                0.021542          0.166907
[INPUT] 2    0    [11   /1   ]  60.996829         5.4e-05
                                22.097637         0.008195
                                10.186744         0.050073
                                4.633892          0.136174
                                2.146927          0.246516
                                1.014536          0.258158
                                0.487206          -0.124799
                                0.248191          -0.439081
                                0.131273          -0.475347
                                0.063714          0.527187
                                0.021542          0.473373
[INPUT] 2    0    [1    /1   ]  0.021542             1
[INPUT] 3    0    [1    /1   ]  0.173012             1
[INPUT] 3    0    [1    /1   ]  0.742579             1
[INPUT] 4    0    [1    /1   ]  0.413265             1

nuclear repulsion = 0
number of shells = 17
number of NR pGTOs = 405
number of NR cGTOs = 63
basis = ccecp-ccpvtz
ecp = ccecp
CPU time:         4.06


******** <class 'pyscf.scf.rohf.ROHF'> ********
method = ROHF-RHF
initial guess = minao
damping factor = 0
level_shift factor = 0
DIIS = <class 'pyscf.scf.diis.CDIIS'>
diis_start_cycle = 1
diis_space = 8
SCF conv_tol = 1e-09
SCF conv_tol_grad = None
SCF max_cycles = 200
direct_scf = True
direct_scf_tol = 1e-13
chkfile to save SCF result = pyscf.chk
max_memory 506305 MB (current use 106 MB)
num. doubly occ = 5  num. singly occ = 1
Set gradient conv threshold to 3.16228e-05
E1 = -74.04233703004292  Ecoul = 28.128672061442952
init E= -45.9136649686
cond(S) = 1227.0508962371755
    CPU time for initialize scf    259.34 sec, wall time      5.75 sec

WARN: HOMO -0.0577234179304798 >= LUMO -0.0577234179304769

                  Roothaan           | alpha              | beta
  Highest 2-occ = -0.304649262999679 | -0.304649262999678 | -0.304649262999678
  Lowest 0-occ =  -0.0577234179304769 | -0.0577234179304768 | -0.0577234179304768
  1-occ =         -0.0577234179304798 | -0.0577234179304799 | -0.0577234179304799
  Roothaan mo_energy =
[-2.91909451 -1.88649838 -1.88649838 -1.88649838 -0.30464926 -0.05772342
 -0.05772342 -0.05772342 -0.05772342 -0.05772342 -0.03758625 -0.03758625
 -0.03758625  0.06681167  0.06681167  0.06681167  0.06681167  0.06681167
  0.0893895   0.09899275  0.09899275  0.09899275  0.25039633  0.25039633
  0.25039633  0.25039633  0.25039633  0.47485893  0.47485893  0.47485893
  0.54996072  0.54996072  0.54996072  0.54996072  0.54996072  0.54996072
  0.54996072  0.66364094  1.0554507   1.0554507   1.0554507   1.0554507
  1.0554507   1.77253906  1.77253906  1.77253906  1.77253906  1.77253906
  1.77253906  1.77253906  1.77253906  1.77253906  1.79522338  1.79522338
  1.79522338  2.15027907  2.15027907  2.15027907  2.15027907  2.15027907
  2.15027907  2.15027907  5.25581759]
E1 = -77.39517515093395  Ecoul = 31.30543235068098
cycle= 1 E= -46.089742800253  delta_E= -0.176  |g|= 0.343  |ddm|= 1.13
    CPU time for cycle= 1     25.54 sec, wall time      0.20 sec
  HOMO = 0.00433445914394527  LUMO = 0.0292679974511974
                  Roothaan           | alpha              | beta
  Highest 2-occ = -0.201859064058161 | -0.207510749717837 | -0.195836558743818
  Lowest 0-occ =  0.0292679974511974 | 0.0282965460367346 | 0.0302394488656597
  1-occ =         0.00433445914394527 |   -0.2534678459142 |  0.276653478043883
  Roothaan mo_energy =
[-2.52926871e+00 -1.51875874e+00 -1.51803302e+00 -1.51032923e+00
 -2.01859064e-01  4.33445914e-03  2.92679975e-02  2.95748163e-02
  3.26899493e-02  6.61752896e-02  6.61786096e-02  6.76117024e-02
  6.77456936e-02  7.65790358e-02  1.23700711e-01  1.43151058e-01
  1.43658254e-01  1.48929079e-01  1.67738757e-01  1.67764323e-01
  1.80038443e-01  1.81206302e-01  3.27177574e-01  3.76438155e-01
  3.76469876e-01  3.90822433e-01  3.92259061e-01  5.76881913e-01
  5.78063558e-01  5.90549056e-01  6.34429245e-01  6.34429260e-01
  6.40479649e-01  6.40581352e-01  6.41409729e-01  6.41645618e-01
  6.42201318e-01  8.19404025e-01  1.30215244e+00  1.31793463e+00
  1.31796768e+00  1.33427507e+00  1.33588339e+00  1.92869873e+00
  1.92869875e+00  1.93493168e+00  1.93493293e+00  1.94205305e+00
  1.94212214e+00  1.94699927e+00  1.94805886e+00  1.94953438e+00
  2.04151400e+00  2.04378850e+00  2.06673715e+00  2.41347308e+00
  2.41347329e+00  2.42725841e+00  2.42822531e+00  2.42829919e+00
  2.42867632e+00  2.42954161e+00  5.46845471e+00]
E1 = -76.68950545893776  Ecoul = 30.57232475034234
cycle= 2 E= -46.1171807085954  delta_E= -0.0274  |g|= 0.064  |ddm|= 0.315
    CPU time for cycle= 2     26.58 sec, wall time      0.21 sec
  HOMO = -0.0560737559021194  LUMO = 0.0245038499899148
                  Roothaan           | alpha              | beta
  Highest 2-occ = -0.211025048790504 | -0.217155476038011 | -0.206575110975172
  Lowest 0-occ =  0.0245038499899148 | 0.0233450961436785 |  0.024768841016606
  1-occ =         -0.0560737559021194 | -0.328698216187936 |  0.225266216758544
  Roothaan mo_energy =
[-2.60513061 -1.59106111 -1.59040953 -1.58355464 -0.21102505 -0.05607376
  0.02450385  0.02483328  0.02804632  0.06437091  0.06437425  0.06575918
  0.06588482  0.07202161  0.1218891   0.13727933  0.13771377  0.13815788
  0.13818319  0.14215665  0.15150137  0.15278977  0.31193382  0.34365837
  0.34368399  0.35517121  0.35635244  0.56359406  0.56461245  0.57518033
  0.62359107  0.62359109  0.62796966  0.62830437  0.62844967  0.62866504
  0.62909969  0.79547059  1.24678036  1.25952886  1.25955826  1.27388245
  1.27531515  1.9081941   1.90819411  1.91264254  1.91264352  1.91869263
  1.91874666  1.92312997  1.92401796  1.92540022  1.99558837  1.99764318
  2.01796219  2.36920087  2.36920096  2.37907779  2.38048922  2.38153363
  2.38197589  2.38206308  5.42094921]
E1 = -76.82243995948991  Ecoul = 30.70204710512491
cycle= 3 E= -46.120392854365  delta_E= -0.00321  |g|= 0.0336  |ddm|= 0.319
    CPU time for cycle= 3     32.69 sec, wall time      0.26 sec
  HOMO = -0.055165356293468  LUMO = 0.0228815326913355
                  Roothaan           | alpha              | beta
  Highest 2-occ = -0.211640496471842 | -0.215546359672198 | -0.206378425813332
  Lowest 0-occ =  0.0228815326913355 |  0.022488421362017 | 0.0238279151095719
  1-occ =         -0.055165356293468 | -0.331455086906453 |  0.246547445122013
  Roothaan mo_energy =
[-2.60013557 -1.58750915 -1.58688745 -1.58014193 -0.2116405  -0.05516536
  0.02288153  0.02317584  0.0261577   0.06395859  0.06396143  0.06516865
  0.06527363  0.07436051  0.12205346  0.13650184  0.13692038  0.13762173
  0.13764479  0.14132613  0.15065172  0.15187754  0.3011412   0.34354201
  0.34356681  0.35522256  0.35640165  0.56257557  0.5635098   0.57329245
  0.62083848  0.62083849  0.62463981  0.62478596  0.62500675  0.62525313
  0.62560648  0.79599897  1.24326072  1.2619503   1.26197883  1.27650327
  1.2779286   1.9051442   1.90514421  1.90902215  1.90902288  1.91473956
  1.91478322  1.91902228  1.91980554  1.9211543   1.99669436  1.99867477
  2.01873815  2.36891471  2.36891471  2.37756697  2.37940793  2.38037626
  2.38159836  2.3816424   5.42329967]
E1 = -76.83359391625186  Ecoul = 30.712799692845294
cycle= 4 E= -46.1207942234066  delta_E= -0.000401  |g|= 0.0245  |ddm|= 0.241
    CPU time for cycle= 4     22.50 sec, wall time      0.17 sec
  HOMO = -0.0517468305162205  LUMO = 0.0224022935566433
                  Roothaan           | alpha              | beta
  Highest 2-occ = -0.211108328355463 | -0.214475105001564 | -0.205878026235077
  Lowest 0-occ =  0.0224022935566433 | 0.0223207044937337 | 0.0234097748957096
  1-occ =         -0.0517468305162205 | -0.341718833300566 |  0.248559416677326
  Roothaan mo_energy =
[-2.59518586 -1.58345608 -1.58284611 -1.57605863 -0.21110833 -0.05174683
  0.02240229  0.0226926   0.02574159  0.06391345  0.06391589  0.06498704
  0.0650771   0.07239022  0.122398    0.13646206  0.13685881  0.13848339
  0.13850563  0.14111338  0.15139725  0.15258957  0.29809137  0.34451764
  0.34454209  0.356438    0.35762357  0.56278823  0.56367956  0.57318565
  0.62014099  0.620141    0.62373386  0.62381187  0.62414618  0.62438103
  0.62469865  0.79729069  1.24295174  1.26490385  1.26493206  1.27973472
  1.28116686  1.90466603  1.90466603  1.9083946   1.90839521  1.91403963
  1.91407845  1.91829964  1.91903613  1.92038495  1.99885197  2.0008056
  2.02098131  2.37037429  2.37037431  2.37872927  2.38073693  2.38167656
  2.38316402  2.38319809  5.4259154 ]
E1 = -76.8050900912815  Ecoul = 30.68294387598877
cycle= 5 E= -46.1221462152927  delta_E= -0.00135  |g|= 0.00258  |ddm|= 0.121
    CPU time for cycle= 5     27.61 sec, wall time      0.22 sec
  HOMO = -0.0501548415015331  LUMO = 0.022282830346009
                  Roothaan           | alpha              | beta
  Highest 2-occ = -0.210670869766153 | -0.215003870749298 | -0.206406401125917
  Lowest 0-occ =   0.022282830346009 |  0.021763023431324 | 0.0229391095161724
  1-occ =         -0.0501548415015331 | -0.346345302453716 |   0.24650299334553
  Roothaan mo_energy =
[-2.5946543  -1.58321298 -1.58261296 -1.57564722 -0.21067087 -0.05015484
  0.02228283  0.02256749  0.02566431  0.06390929  0.06391154  0.06499731
  0.06508263  0.07013512  0.12249183  0.13648276  0.13686684  0.13837868
  0.13840003  0.14113611  0.15139421  0.15256959  0.29866697  0.3444217
  0.34444523  0.3565039   0.35767261  0.56263972  0.56351199  0.57322338
  0.61974237  0.61974239  0.62350386  0.62356325  0.62395031  0.6241986
  0.62450123  0.79728536  1.24211158  1.26502154  1.26504902  1.28006075
  1.28148311  1.90401439  1.9040144   1.90793466  1.90793518  1.91371542
  1.91375123  1.91806378  1.91877838  1.92016231  1.99882319  2.00075125
  2.021242    2.37003147  2.37003149  2.37878088  2.38073962  2.38166755
  2.38302091  2.38305646  5.42620247]
E1 = -76.80031344780272  Ecoul = 30.678160517722823
cycle= 6 E= -46.1221529300799  delta_E= -6.71e-06  |g|= 0.000492  |ddm|= 0.00967
    CPU time for cycle= 6     36.33 sec, wall time      0.29 sec
  HOMO = -0.0506392255662306  LUMO = 0.0221562496038548
                  Roothaan           | alpha              | beta
  Highest 2-occ = -0.210827709078405 | -0.215102985623156 | -0.206552987515408
  Lowest 0-occ =  0.0221562496038548 | 0.0215810853810739 | 0.0227536636633561
  1-occ =         -0.0506392255662306 | -0.347405810622966 |  0.246096103925923
  Roothaan mo_energy =
[-2.59498195 -1.58357148 -1.58298548 -1.57599089 -0.21082771 -0.05063923
  0.02215625  0.02243664  0.0255422   0.06384376  0.06384591  0.06494913
  0.06503277  0.07046624  0.12241516  0.13637381  0.13675188  0.13812388
  0.13814438  0.14101891  0.15114923  0.15230756  0.29826863  0.3441821
  0.34420491  0.35627445  0.35742415  0.5624236   0.56327949  0.57300109
  0.61945783  0.61945785  0.62323996  0.62329165  0.62370777  0.62395177
  0.62424523  0.79707845  1.24183854  1.26472177  1.2647485   1.27977372
  1.28117586  1.90365339  1.9036534   1.90758399  1.90758448  1.91336734
  1.91340154  1.91772321  1.91842219  1.91981661  1.99852526  2.00042315
  2.02093388  2.36968806  2.36968808  2.3784179   2.38038405  2.38129682
  2.38267662  2.38271069  5.42598032]
E1 = -76.79912843065458  Ecoul = 30.676974984379143
cycle= 7 E= -46.1221534462754  delta_E= -5.16e-07  |g|= 0.000289  |ddm|= 0.00401
    CPU time for cycle= 7     21.44 sec, wall time      0.17 sec
  HOMO = -0.0507641961433089  LUMO = 0.0221398835889901
                  Roothaan           | alpha              | beta
  Highest 2-occ = -0.210863196529192 |  -0.21513676297882 | -0.206579308757986
  Lowest 0-occ =  0.0221398835889901 |  0.021555916562379 | 0.0227323703822908
  1-occ =         -0.0507641961433089 | -0.347502896957573 |  0.245988377875638
  Roothaan mo_energy =
[-2.59508673 -1.58366878 -1.58309116 -1.57609475 -0.2108632  -0.0507642
  0.02213988  0.02241727  0.02551855  0.06383267  0.06383475  0.06494275
  0.06502502  0.07051577  0.12240725  0.13635412  0.13672745  0.13806656
  0.13808651  0.14099982  0.15110035  0.15224586  0.29824151  0.34412919
  0.34415148  0.35622559  0.35736157  0.5623834   0.56322756  0.57296274
  0.61941119  0.61941121  0.62319718  0.6232467   0.62366192  0.62391067
  0.62419839  0.79702812  1.24178341  1.2646445   1.26467064  1.27970258
  1.28108903  1.90358823  1.90358824  1.9075171   1.90751756  1.91329928
  1.91333244  1.9176582   1.91834655  1.91974521  1.99846011  2.00033559
  2.02085369  2.36960547  2.36960549  2.37833079  2.38030159  2.38120283
  2.38258984  2.38262291  5.42592174]
E1 = -76.79922531153527  Ecoul = 30.677071681850222
cycle= 8 E= -46.122153629685  delta_E= -1.83e-07  |g|= 0.00016  |ddm|= 0.00144
    CPU time for cycle= 8     17.91 sec, wall time      0.14 sec
  HOMO = -0.0507775993531001  LUMO = 0.0221380491775767
                  Roothaan           | alpha              | beta
  Highest 2-occ = -0.210867312522139 | -0.215135919408238 | -0.206578938606585
  Lowest 0-occ =  0.0221380491775767 | 0.0215541945891409 | 0.0227327465427625
  1-occ =         -0.0507775993531001 | -0.347495034559502 |  0.246009170826974
  Roothaan mo_energy =
[-2.59511071 -1.5836882  -1.58312197 -1.57611574 -0.21086731 -0.0507776
  0.02213805  0.0224106   0.0255159   0.0638289   0.06383087  0.06494408
  0.06502425  0.07050334  0.12240652  0.1363526   0.13671915  0.13804929
  0.13806847  0.14099859  0.15110039  0.15222684  0.29825463  0.34411266
  0.34413417  0.35622619  0.3573425   0.56237852  0.56320621  0.5729629
  0.61939145  0.61939147  0.62319179  0.62323774  0.6236571   0.62391193
  0.62419156  0.7970182   1.24177201  1.26462378  1.26464905  1.27969978
  1.28106337  1.90355886  1.90355887  1.90749778  1.90749822  1.91328813
  1.91331977  1.91765748  1.91833058  1.91973704  1.99845435  2.00029724
  2.02084497  2.36957604  2.36957606  2.37831822  2.38029395  2.38117847
  2.38256805  2.38259984  5.42591025]
E1 = -76.79923908086602  Ecoul = 30.6770853214433
cycle= 9 E= -46.1221537594227  delta_E= -1.3e-07  |g|= 0.000141  |ddm|= 0.000934
    CPU time for cycle= 9     17.37 sec, wall time      0.14 sec
  HOMO = -0.0507428953220157  LUMO = 0.022145103009675
                  Roothaan           | alpha              | beta
  Highest 2-occ = -0.210857796792039 |  -0.21513671772905 | -0.206580185087191
  Lowest 0-occ =   0.022145103009675 | 0.0215543250172165 | 0.0227341751136012
  1-occ =         -0.0507428953220157 | -0.347499674659119 |  0.246014218368915
  Roothaan mo_energy =
[-2.59508304 -1.58365704 -1.58310103 -1.57608834 -0.2108578  -0.0507429
  0.0221451   0.022413    0.02552024  0.06383098  0.06383287  0.06494713
  0.06502552  0.07048571  0.12241039  0.13636065  0.1367208   0.13806241
  0.13808092  0.14100464  0.15112451  0.15223216  0.29826236  0.34412501
  0.34414581  0.35625056  0.35734803  0.56239575  0.5632084   0.57297536
  0.61940062  0.61940063  0.62320441  0.62324822  0.62366655  0.62392644
  0.62419966  0.79703098  1.24178547  1.26464297  1.26466742  1.27973257
  1.28107374  1.90357308  1.90357308  1.90751338  1.90751379  1.91330546
  1.91333586  1.91768075  1.91834071  1.91975306  1.99848835  2.00030004
  2.02086714  2.36959553  2.36959555  2.37834169  2.3803236   2.38119266
  2.3825894   2.38262004  5.42592578]
E1 = -76.7992106796712  Ecoul = 30.67705679796418
cycle= 10 E= -46.122153881707  delta_E= -1.22e-07  |g|= 0.000136  |ddm|= 0.000881
    CPU time for cycle= 10     21.47 sec, wall time      0.17 sec
  HOMO = -0.0507518363565356  LUMO = 0.0221503647673149
                  Roothaan           | alpha              | beta
  Highest 2-occ = -0.210859813317107 | -0.215137033007141 | -0.206580316530691
  Lowest 0-occ =  0.0221503647673149 | 0.0215555910265465 | 0.0227369870441499
  1-occ =         -0.0507518363565356 | -0.347504288377753 |  0.246009697422331
  Roothaan mo_energy =
[-2.59508921 -1.58365163 -1.58311809 -1.57609287 -0.21085981 -0.05075184
  0.02215036  0.02240786  0.02552058  0.06383061  0.06383234  0.06494889
  0.06502378  0.07049504  0.1224092   0.13636662  0.13671263  0.13806038
  0.13807731  0.14100487  0.15114477  0.15221002  0.29826333  0.34412325
  0.34414233  0.35627032  0.35732533  0.56241027  0.56319019  0.57297582
  0.61939992  0.61939994  0.62320841  0.62324834  0.62366327  0.62393332
  0.62419384  0.79702837  1.24178355  1.26463863  1.26466119  1.27975446
  1.28104456  1.90357182  1.90357182  1.90751354  1.9075139   1.91330782
  1.9133357   1.91769476  1.91832695  1.91975143  1.99851878  2.00026034
  2.02086618  2.36959187  2.36959189  2.37834298  2.38033875  2.38117353
  2.38258669  2.38261491  5.42592202]
E1 = -76.79924747936178  Ecoul = 30.67709332491931
cycle= 11 E= -46.1221541544425  delta_E= -2.73e-07  |g|= 0.00013  |ddm|= 0.00202
    CPU time for cycle= 11     35.82 sec, wall time      0.28 sec
  HOMO = -0.05074564703237  LUMO = 0.0221662181640351
                  Roothaan           | alpha              | beta
  Highest 2-occ = -0.210857595400205 | -0.215136462745826 | -0.206579630912852
  Lowest 0-occ =  0.0221662181640351 | 0.0215598115131125 |  0.022744439817937
  1-occ =          -0.05074564703237 | -0.347492250414534 |  0.246017553736916
  Roothaan mo_energy =
[-2.59507885 -1.58361126 -1.58314323 -1.57608038 -0.2108576  -0.05074565
  0.02216622  0.02239294  0.02552293  0.06383132  0.06383263  0.0649545
  0.06501954  0.07048946  0.12241151  0.13638812  0.13669229  0.13806554
  0.13807645  0.14100814  0.15121501  0.15215379  0.29826639  0.34412939
  0.34414193  0.35634025  0.35726931  0.56245925  0.56314362  0.57298281
  0.61940107  0.61940108  0.62322077  0.62325098  0.62365705  0.6239544
  0.62417997  0.7970325   1.24178838  1.26464591  1.2646624   1.27984132
  1.28097887  1.90357248  1.90357249  1.90751814  1.90751838  1.91331875
  1.91334009  1.91774009  1.91829269  1.91975234  1.99862528  2.00015873
  2.0208813   2.36959427  2.36959429  2.3783602   2.38039813  2.38113196
  2.38259341  2.38261526  5.42592787]
E1 = -76.79925384660001  Ecoul = 30.677098932894268
cycle= 12 E= -46.1221549137057  delta_E= -7.59e-07  |g|= 0.000115  |ddm|= 0.0061
    CPU time for cycle= 12     27.63 sec, wall time      0.22 sec
  HOMO = -0.050749627539205  LUMO = 0.0221791641184704
                  Roothaan           | alpha              | beta
  Highest 2-occ = -0.210857825890925 | -0.215136073591626 | -0.206579650806864
  Lowest 0-occ =  0.0221791641184704 | 0.0215691294824264 | 0.0227640985373889
  1-occ =         -0.050749627539205 | -0.347498475305771 |  0.246023597316508
  Roothaan mo_energy =
[-2.59507851 -1.58358332 -1.58317424 -1.57607796 -0.21085783 -0.05074963
  0.02217916  0.0223776   0.02552356  0.06383117  0.06383208  0.06495868
  0.06501529  0.07048887  0.1224122   0.13640596  0.13667241  0.13806563
  0.1380713   0.14100918  0.15127457  0.15209746  0.2982646   0.34413071
  0.34413745  0.35639928  0.35721324  0.56249982  0.5630983   0.57298526
  0.61939844  0.61939844  0.62322688  0.62324975  0.62364955  0.6239692
  0.62416482  0.79703187  1.2417884   1.2646458   1.26465716  1.27991378
  1.28091109  1.90356774  1.90356775  1.90751677  1.90751693  1.91332257
  1.91333887  1.91777524  1.91825728  1.91974868  1.99871626  2.00005962
  2.0208877   2.36958976  2.36958977  2.37836767  2.38044484  2.3810871
  2.38259252  2.38260942  5.42592784]
E1 = -76.79925738364574  Ecoul = 30.67710185067541
cycle= 13 E= -46.1221555329703  delta_E= -6.19e-07  |g|= 0.000108  |ddm|= 0.00564
    CPU time for cycle= 13     43.50 sec, wall time      0.34 sec
  HOMO = -0.0507710320373111  LUMO = 0.0222074285916043
                  Roothaan           | alpha              | beta
  Highest 2-occ = -0.210858304926008 | -0.215135813749262 | -0.206579818600083
  Lowest 0-occ =  0.0222074285916043 | 0.0215774299140907 | 0.0227820594067916
  1-occ =         -0.0507710320373111 | -0.347472963001738 |   0.24603386225155
  Roothaan mo_energy =
[-2.59507514 -1.58351861 -1.58324158 -1.57607125 -0.2108583  -0.05077103
  0.02220743  0.02234243  0.02552405  0.06383062  0.06383076  0.06496752
  0.0650054   0.07048767  0.12241341  0.13644633  0.13662723  0.13806053
  0.1380719   0.14101048  0.15140851  0.15196894  0.29825412  0.34412825
  0.34414007  0.35653227  0.35708617  0.56259102  0.56299648  0.57298875
  0.61939192  0.61939192  0.62323518  0.62324531  0.6236346   0.62399939
  0.62412982  0.79703085  1.2417857   1.26464754  1.26464911  1.28007847
  1.28075813  1.90355661  1.90355661  1.90751174  1.9075118   1.91332691
  1.91333469  1.91785169  1.91817677  1.91974065  1.99892327  1.99983719
  2.02090091  2.36958092  2.36958092  2.37838009  2.3805492   2.38098528
  2.38259078  2.38259952  5.42592869]
E1 = -76.79926233060678  Ecoul = 30.677105684144554
cycle= 14 E= -46.1221566464622  delta_E= -1.11e-06  |g|= 7.99e-05  |ddm|= 0.0128
    CPU time for cycle= 14     22.51 sec, wall time      0.17 sec
  HOMO = -0.050730952764208  LUMO = 0.0222299956061379
                  Roothaan           | alpha              | beta
  Highest 2-occ = -0.210857068434132 |  -0.21513560439809 | -0.206580109634775
  Lowest 0-occ =  0.0222299956061379 | 0.0215958321319912 | 0.0228228420243693
  1-occ =         -0.050730952764208 | -0.347505280190641 |  0.246025386721092
  Roothaan mo_energy =
[-2.59506856 -1.58346965 -1.58327795 -1.57606445 -0.21085707 -0.05073095
  0.02223     0.02232319  0.02552569  0.0638306   0.06383102  0.06497412
  0.06500051  0.07048723  0.1224147   0.13647514  0.13660012  0.13805938
  0.13806322  0.14101206  0.15149964  0.15188621  0.29826305  0.34412619
  0.34413081  0.35662219  0.35700444  0.56265561  0.56293615  0.57299308
  0.61939366  0.61939366  0.62324346  0.62324864  0.62363357  0.62402308
  0.62411415  0.7970338   1.24179064  1.26464829  1.2646524   1.28018983
  1.28065848  1.90356032  1.90356032  1.90751694  1.90751696  1.91333503
  1.91333859  1.91790552  1.91813106  1.91974179  1.99906938  1.99970018
  2.02090698  2.36958533  2.36958533  2.37839094  2.38062192  2.38092325
  2.38259561  2.38259911  5.42593303]
E1 = -76.79915035055656  Ecoul = 30.676993191281973
cycle= 15 E= -46.1221571592746  delta_E= -5.13e-07  |g|= 5.89e-05  |ddm|= 0.00858
    CPU time for cycle= 15     26.62 sec, wall time      0.21 sec
  HOMO = -0.0507751472667401  LUMO = 0.0222588899039699
                  Roothaan           | alpha              | beta
  Highest 2-occ = -0.210859671808778 | -0.215138629414291 | -0.206582066895206
  Lowest 0-occ =  0.0222588899039699 | 0.0216080532708184 | 0.0228506732777308
  1-occ =         -0.0507751472667401 | -0.347486819370833 |  0.246031369104661
  Roothaan mo_energy =
[-2.59508469 -1.5834251  -1.58335427 -1.576076   -0.21085967 -0.05077515
  0.02225889  0.02229323  0.02552688  0.0638303   0.06383032  0.06498263
  0.06499247  0.0704904   0.12241439  0.13651294  0.13655903  0.13805284
  0.13806729  0.14101333  0.15161971  0.151762    0.29826715  0.34412115
  0.34413623  0.35673962  0.35688039  0.56273968  0.56284332  0.57299513
  0.61939153  0.61939153  0.62324794  0.62324849  0.62362969  0.62405237
  0.6240864   0.79702835  1.24178481  1.26463539  1.26464202  1.28032957
  1.28050199  1.90355351  1.90355351  1.90751398  1.90751398  1.91333661
  1.9133375   1.91797697  1.91806056  1.91974051  1.99925554  1.99948789
  2.02090621  2.36957293  2.36957293  2.37839002  2.38071166  2.38082279
  2.38258738  2.3825889   5.42592406]
E1 = -76.7993809709936  Ecoul = 30.67722341283128
cycle= 16 E= -46.1221575581623  delta_E= -3.99e-07  |g|= 4.82e-05  |ddm|= 0.012
    CPU time for cycle= 16     22.53 sec, wall time      0.18 sec
  HOMO = -0.0507829746831358  LUMO = 0.0222751896634541
                  Roothaan           | alpha              | beta
  Highest 2-occ = -0.210858143676247 | -0.215132861926981 | -0.206577603644683
  Lowest 0-occ =  0.0222751896634541 |  0.021628336634934 | 0.0228926697736316
  1-occ =         -0.0507829746831358 | -0.347504976792906 |  0.246059567845117
  Roothaan mo_energy =
[-2.59507749 -1.58338551 -1.58338192 -1.5760681  -0.21085814 -0.05078297
  0.02227519  0.02227688  0.02552756  0.0638302   0.06383052  0.06498747
  0.06498799  0.07048927  0.12241504  0.13653515  0.13653746  0.13805367
  0.13807582  0.1410147   0.15169104  0.15169802  0.29826297  0.34412193
  0.34414556  0.35681045  0.3568174   0.56278959  0.5627948   0.57299826
  0.61939141  0.61939141  0.62324935  0.62324964  0.62363117  0.62407034
  0.62407219  0.79703119  1.24179001  1.26463766  1.26464856  1.28041766
  1.28042611  1.90355361  1.90355361  1.90751579  1.90751579  1.91334001
  1.91334058  1.91802051  1.91802482  1.91974438  1.99936861  1.99938008
  2.02091407  2.3695757   2.3695757   2.37839648  2.38077031  2.38077584
  2.38259246  2.38259403  5.42592766]
E1 = -76.79936672068742  Ecoul = 30.677209099175624
cycle= 17 E= -46.1221576215118  delta_E= -6.33e-08  |g|= 4.62e-05  |ddm|= 0.00663
    CPU time for cycle= 17     20.92 sec, wall time      0.16 sec
  HOMO = -0.0508108195416211  LUMO = 0.0222752179489285
                  Roothaan           | alpha              | beta
  Highest 2-occ = -0.210858593537271 | -0.215133364656357 |  -0.20657824440006
  Lowest 0-occ =  0.0222752179489285 | 0.0216375176593083 | 0.0229147389782044
  1-occ =         -0.0508108195416211 | -0.347519185708139 |  0.246068103931269
  Roothaan mo_energy =
[-2.59507917 -1.5833871  -1.58338474 -1.5760685  -0.21085859 -0.05081082
  0.02227522  0.02227633  0.02552817  0.06382995  0.06383036  0.06498767
  0.06498801  0.07048918  0.12241488  0.13653509  0.13653662  0.13805089
  0.13808676  0.14101527  0.15169277  0.1516974   0.29826417  0.34411944
  0.34415761  0.35681207  0.35681668  0.56278926  0.56279268  0.57299963
  0.61939054  0.61939054  0.62324935  0.62324983  0.62363168  0.62407122
  0.6240724   0.79703046  1.24178823  1.26463411  1.26465172  1.28041917
  1.28042478  1.90355097  1.90355097  1.9075147   1.9075147   1.91334015
  1.91334107  1.91802255  1.91802535  1.91974598  1.9993678   1.9993754
  2.02091643  2.369573    2.369573    2.37839656  2.38077131  2.38077495
  2.38259144  2.38259397  5.42592682]
E1 = -76.79946119524811  Ecoul = 30.677303576224
cycle= 18 E= -46.1221576190241  delta_E= 2.49e-09  |g|= 7.4e-05  |ddm|= 0.00013
    CPU time for cycle= 18     23.53 sec, wall time      0.18 sec
  HOMO = -0.0507691598346933  LUMO = 0.0222754464986297
                  Roothaan           | alpha              | beta
  Highest 2-occ = -0.210858468791998 | -0.215131213575889 | -0.206576645826642
  Lowest 0-occ =  0.0222754464986297 | 0.0216384241052281 | 0.0229156445092348
  1-occ =         -0.0507691598346933 |  -0.34751846695903 |  0.246062276953229
  Roothaan mo_energy =
[-2.59508008 -1.58338713 -1.58338414 -1.57607117 -0.21085847 -0.05076916
  0.02227545  0.02227686  0.02552715  0.06383022  0.0638304   0.06498746
  0.0649879   0.07048895  0.12241493  0.1365353   0.13653722  0.13805396
  0.1380679   0.1410141   0.15169012  0.15169592  0.29826492  0.34412211
  0.34413697  0.35680942  0.3568152   0.56278994  0.5627943   0.572997
  0.61939135  0.61939135  0.62324906  0.62324924  0.62363054  0.62406988
  0.62407144  0.79703034  1.24178933  1.26463743  1.26464428  1.28041595
  1.28042296  1.90355397  1.90355397  1.90751541  1.90751541  1.91333899
  1.91333935  1.91801921  1.91802282  1.91974256  1.99936908  1.99937863
  2.02091059  2.369575    2.369575    2.37839448  2.38076864  2.38077326
  2.38259075  2.38259174  5.42592638]
E1 = -76.79931505933396  Ecoul = 30.67715743624548
cycle= 19 E= -46.1221576230885  delta_E= -4.06e-09  |g|= 2.85e-05  |ddm|= 0.000103
    CPU time for cycle= 19     25.05 sec, wall time      0.20 sec
  HOMO = -0.05074729864415  LUMO = 0.0222758810046427
                  Roothaan           | alpha              | beta
  Highest 2-occ = -0.210858816849926 | -0.215134752356939 | -0.206579140279403
  Lowest 0-occ =  0.0222758810046427 | 0.0216371984552511 | 0.0229146726853576
  1-occ =          -0.05074729864415 | -0.347516910934647 |  0.246039385592028
  Roothaan mo_energy =
[-2.59508172 -1.58338678 -1.58338644 -1.57607382 -0.21085882 -0.0507473
  0.02227588  0.02227604  0.02552627  0.06383024  0.06383026  0.06498742
  0.06498748  0.07048892  0.12241476  0.13653608  0.13653629  0.1380549
  0.13805679  0.14101306  0.15169077  0.15169142  0.29826499  0.34412292
  0.34412494  0.3568101   0.35681075  0.56279181  0.56279231  0.57299474
  0.61939101  0.61939101  0.62324805  0.62324808  0.62362898  0.62406904
  0.62406922  0.79702956  1.24178927  1.26463846  1.26463939  1.28041685
  1.28041764  1.9035544   1.9035544   1.90751455  1.90751455  1.91333709
  1.91333714  1.91801792  1.91801834  1.9197394   1.99937355  1.99937462
  2.02090634  2.36957481  2.36957481  2.3783921   2.38076824  2.38076876
  2.38258909  2.38258922  5.42592561]
E1 = -76.79923414121916  Ecoul = 30.67707651739008
cycle= 20 E= -46.1221576238291  delta_E= -7.41e-10  |g|= 3.83e-06  |ddm|= 0.000315
    CPU time for cycle= 20     16.87 sec, wall time      0.13 sec
  HOMO = -0.0507426409443104  LUMO = 0.0222759669947683
                  Roothaan           | alpha              | beta
  Highest 2-occ = -0.210858594600118 | -0.215136669703873 | -0.206580514191837
  Lowest 0-occ =  0.0222759669947683 | 0.0216368944168386 |  0.022915039572699
  1-occ =         -0.0507426409443104 |  -0.34751649484492 |  0.246029920526755
  Roothaan mo_energy =
[-2.59508036 -1.58338544 -1.58338511 -1.57607277 -0.21085859 -0.05074264
  0.02227597  0.02227612  0.02552623  0.06383033  0.06383033  0.06498742
  0.06498747  0.07048887  0.12241486  0.13653624  0.13653645  0.13805573
  0.13805576  0.14101304  0.15169107  0.15169171  0.2982646   0.34412371
  0.34412372  0.35681047  0.35681111  0.56279224  0.56279272  0.57299471
  0.61939133  0.61939133  0.62324818  0.62324818  0.62362901  0.62406907
  0.62406924  0.79703004  1.24178995  1.26463978  1.26463978  1.28041761
  1.28041839  1.90355517  1.90355517  1.90751502  1.90751502  1.91333734
  1.91333734  1.91801799  1.91801839  1.91973941  1.99937465  1.9993757
  2.02090659  2.36957594  2.36957594  2.37839263  2.38076882  2.38076933
  2.3825899   2.3825899   5.42592634]
E1 = -76.7992172663711  Ecoul = 30.677059642531624
Extra cycle  E= -46.1221576238395  delta_E= -1.04e-11  |g|= 2.29e-06  |ddm|= 9.34e-06
    CPU time for scf_cycle    789.63 sec, wall time      9.90 sec
    CPU time for SCF    789.63 sec, wall time      9.90 sec
converged SCF energy = -46.1221576238395
