#INFO: **** input file is /home/nkousuke/lustre/toBeSync/turboRVB/05turbo-genius-development/turbogenius_paper/04data/sanity_checks/03pyscf_HF_turbo_VMC_via_trexio/00open_boundary/results/Mg/pyscf-HF-workflow/run.py ****

from pyscf_wrapper import Pyscf_wrapper

# input variables
pyscf_chkfile="pyscf.chk"
structure_file="Mg.xyz"

# input variables
omp_num_threads=128
charge=0
spin=0
basis="ccecp-ccpvqz"
ecp="ccecp"
scf_method="HF"
dft_xc="NA"
solver_newton=False
MP2_flag=False
CCSD_flag=False
pyscf_output="out.pyscf"
twist_average=False
exp_to_discard=0.0
kpt=[0.0, 0.0, 0.0]
kpt_grid=[1, 1, 1]
smearing_method="fermi"
smearing_sigma=0.0

pyscf_calc=Pyscf_wrapper(
                        structure_file=structure_file,
                        chkfile=pyscf_chkfile,
                        )

pyscf_calc.run_pyscf(
                  omp_num_threads=omp_num_threads,
                  charge=charge,
                  spin=spin,
                  basis=basis,
                  ecp=ecp,
                  scf_method=scf_method,
                  dft_xc=dft_xc,
                  solver_newton=solver_newton,
                  MP2_flag=MP2_flag,
                  CCSD_flag=CCSD_flag,
                  pyscf_output=pyscf_output,
                  twist_average=twist_average,
                  exp_to_discard=exp_to_discard,
                  kpt=kpt,
                  kpt_grid=kpt_grid,
                  smearing_method=smearing_method,
                  smearing_sigma=smearing_sigma
                  )
                #INFO: ******************** input file end ********************


System: uname_result(system='Linux', node='spcc-238', release='5.4.0-66-generic', version='#74-Ubuntu SMP Wed Jan 27 22:54:38 UTC 2021', machine='x86_64', processor='x86_64')  Threads 128
Python 3.7.3 (default, Mar 27 2019, 22:11:17) 
[GCC 7.3.0]
numpy 1.20.1  scipy 1.7.3
Date: Mon Dec 19 18:08:09 2022
PySCF version 2.0.1
PySCF path  /home/nkousuke/application/anaconda3/lib/python3.7/site-packages/pyscf

[CONFIG] conf_file /home/nkousuke/.pyscf_conf.py
[INPUT] verbose = 5
[INPUT] max_memory = 506317.31640625 
[INPUT] num. atoms = 1
[INPUT] num. electrons = 2
[INPUT] charge = 0
[INPUT] spin (= nelec alpha-beta = 2S) = 0
[INPUT] symmetry False subgroup None
[INPUT] Mole.unit = A
[INPUT]  1 Mg     0.000000000000   0.000000000000   0.000000000000 AA    0.000000000000   0.000000000000   0.000000000000 Bohr
[INPUT] ---------------- BASIS SET ---------------- 
[INPUT] l, kappa, [nprim/nctr], expnt,             c_1 c_2 ...
[INPUT] Mg
[INPUT] 0    0    [10   /1   ]  51.711283         1.3e-05
                                22.8922           -7.9e-05
                                10.134207         0.000388
                                4.486338          -0.005557
                                1.986068          0.047098
                                0.879218          -0.180052
                                0.389223          -0.07386
                                0.172306          0.237658
                                0.076279          0.584777
                                0.033768          0.234225
[INPUT] 0    0    [1    /1   ]  0.030897             1
[INPUT] 0    0    [1    /1   ]  0.069571             1
[INPUT] 0    0    [1    /1   ]  0.156651             1
[INPUT] 1    0    [10   /1   ]  13.152061         1.8e-05
                                6.979476          -4.7e-05
                                3.703836          0.000578
                                1.965535          0.000743
                                1.043061          -0.000694
                                0.553527          -0.007343
                                0.293743          0.015526
                                0.155882          -0.006619
                                0.082723          0.071634
                                0.043899          -0.019276
[INPUT] 1    0    [1    /1   ]  0.025392             1
[INPUT] 1    0    [1    /1   ]  0.064751             1
[INPUT] 1    0    [1    /1   ]  0.165122             1
[INPUT] 2    0    [1    /1   ]  0.105834             1
[INPUT] 2    0    [1    /1   ]  0.194029             1
[INPUT] 2    0    [1    /1   ]  0.355719             1
[INPUT] 3    0    [1    /1   ]  0.180053             1
[INPUT] 3    0    [1    /1   ]  0.357087             1
[INPUT] 4    0    [1    /1   ]  0.3069               1

nuclear repulsion = 0
number of shells = 14
number of NR pGTOs = 90
number of NR cGTOs = 54
basis = ccecp-ccpvqz
ecp = ccecp
CPU time:         3.60


******** <class 'pyscf.scf.hf.RHF'> ********
method = RHF
initial guess = minao
damping factor = 0
level_shift factor = 0
DIIS = <class 'pyscf.scf.diis.CDIIS'>
diis_start_cycle = 1
diis_space = 8
SCF conv_tol = 1e-09
SCF conv_tol_grad = None
SCF max_cycles = 200
direct_scf = True
direct_scf_tol = 1e-13
chkfile to save SCF result = pyscf.chk
max_memory 506317 MB (current use 106 MB)
Set gradient conv threshold to 3.16228e-05
E1 = -1.0733944853724928  E_coul = 0.28545861237499076
init E= -0.787935872997502
cond(S) = 1084.3175133067616
    CPU time for initialize scf     83.46 sec, wall time      0.87 sec
  HOMO = -0.251404119986007  LUMO = 0.0316074713220063
  mo_energy =
[-0.25140412  0.03160747  0.03160747  0.03160747  0.09324949  0.13073933
  0.13073933  0.13073933  0.25406514  0.25406514  0.25406514  0.25406514
  0.25406514  0.41277025  0.41277025  0.41277025  0.49090191  0.66727644
  0.66727644  0.66727644  0.66727644  0.66727644  0.66727644  0.66727644
  0.72365429  0.72365429  0.72365429  0.72365429  0.72365429  1.13182451
  1.13182451  1.13182451  1.55015932  1.55015932  1.55015932  1.55015932
  1.55015932  1.55015932  1.55015932  1.55015932  1.55015932  1.56917469
  1.56917469  1.56917469  1.56917469  1.56917469  1.78423254  1.78423254
  1.78423254  1.78423254  1.78423254  1.78423254  1.78423254  3.02150577]
E1 = -1.0705404317182314  E_coul = 0.2821877742913525
cycle= 1 E= -0.788352657426879  delta_E= -0.000417  |g|= 0.00509  |ddm|= 0.204
    CPU time for cycle= 1     18.44 sec, wall time      0.15 sec
  HOMO = -0.253095659843945  LUMO = 0.030429458639951
  mo_energy =
[-0.25309566  0.03042946  0.03042946  0.03042946  0.09300126  0.12956954
  0.12956954  0.12956954  0.25240785  0.25240785  0.25240785  0.25240785
  0.25240785  0.41092794  0.41092794  0.41092794  0.48860948  0.66502596
  0.66502596  0.66502596  0.66502596  0.66502596  0.66502596  0.66502596
  0.7208559   0.7208559   0.7208559   0.7208559   0.7208559   1.12926017
  1.12926017  1.12926017  1.546735    1.546735    1.546735    1.546735
  1.546735    1.546735    1.546735    1.546735    1.546735    1.56524536
  1.56524536  1.56524536  1.56524536  1.56524536  1.78019628  1.78019628
  1.78019628  1.78019628  1.78019628  1.78019628  1.78019628  3.01639872]
E1 = -1.0694820437551205  E_coul = 0.2810942372680456
cycle= 2 E= -0.788387806487075  delta_E= -3.51e-05  |g|= 0.00146  |ddm|= 0.0566
    CPU time for cycle= 2     20.91 sec, wall time      0.16 sec
  HOMO = -0.253941788071986  LUMO = 0.0298012822135782
  mo_energy =
[-0.25394179  0.02980128  0.02980128  0.02980128  0.09283891  0.12897946
  0.12897946  0.12897946  0.25154367  0.25154367  0.25154367  0.25154367
  0.25154367  0.40994935  0.40994935  0.40994935  0.48742481  0.66386026
  0.66386026  0.66386026  0.66386026  0.66386026  0.66386026  0.66386026
  0.71940124  0.71940124  0.71940124  0.71940124  0.71940124  1.12790711
  1.12790711  1.12790711  1.54498132  1.54498132  1.54498132  1.54498132
  1.54498132  1.54498132  1.54498132  1.54498132  1.54498132  1.5631901
  1.5631901   1.5631901   1.5631901   1.5631901   1.77811309  1.77811309
  1.77811309  1.77811309  1.77811309  1.77811309  1.77811309  3.01368365]
E1 = -1.0689314416052362  E_coul = 0.2805392180971969
cycle= 3 E= -0.788392223508039  delta_E= -4.42e-06  |g|= 0.000105  |ddm|= 0.0313
    CPU time for cycle= 3     22.52 sec, wall time      0.17 sec
  HOMO = -0.253920473569582  LUMO = 0.0298107662369985
  mo_energy =
[-0.25392047  0.02981077  0.02981077  0.02981077  0.0928354   0.12899268
  0.12899268  0.12899268  0.25155801  0.25155801  0.25155801  0.25155801
  0.25155801  0.4099654   0.4099654   0.4099654   0.48744576  0.66388037
  0.66388037  0.66388037  0.66388037  0.66388037  0.66388037  0.66388037
  0.71942874  0.71942874  0.71942874  0.71942874  0.71942874  1.12793374
  1.12793374  1.12793374  1.54501672  1.54501672  1.54501672  1.54501672
  1.54501672  1.54501672  1.54501672  1.54501672  1.54501672  1.56323172
  1.56323172  1.56323172  1.56323172  1.56323172  1.77815702  1.77815702
  1.77815702  1.77815702  1.77815702  1.77815702  1.77815702  3.0137399 ]
E1 = -1.0689433100432415  E_coul = 0.28055108312745985
cycle= 4 E= -0.788392226915782  delta_E= -3.41e-09  |g|= 8.69e-06  |ddm|= 0.00098
    CPU time for cycle= 4     18.95 sec, wall time      0.15 sec
  HOMO = -0.253921060718911  LUMO = 0.0298098556427802
  mo_energy =
[-0.25392106  0.02980986  0.02980986  0.02980986  0.09283543  0.12899303
  0.12899303  0.12899303  0.25155715  0.25155715  0.25155715  0.25155715
  0.25155715  0.40996509  0.40996509  0.40996509  0.48744484  0.66387932
  0.66387932  0.66387932  0.66387932  0.66387932  0.66387932  0.66387932
  0.71942846  0.71942846  0.71942846  0.71942846  0.71942846  1.12793448
  1.12793448  1.12793448  1.54501623  1.54501623  1.54501623  1.54501623
  1.54501623  1.54501623  1.54501623  1.54501623  1.54501623  1.5632326
  1.5632326   1.5632326   1.5632326   1.5632326   1.7781576   1.7781576
  1.7781576   1.7781576   1.7781576   1.7781576   1.7781576   3.01374268]
E1 = -1.0689424254369868  E_coul = 0.2805501984306543
cycle= 5 E= -0.788392227006332  delta_E= -9.06e-11  |g|= 1.09e-07  |ddm|= 0.000234
    CPU time for cycle= 5     22.00 sec, wall time      0.17 sec
  HOMO = -0.253921014287847  LUMO = 0.0298098001852964
  mo_energy =
[-0.25392101  0.0298098   0.0298098   0.0298098   0.09283526  0.12899295
  0.12899295  0.12899295  0.25155705  0.25155705  0.25155705  0.25155705
  0.25155705  0.40996496  0.40996496  0.40996496  0.48744469  0.66387917
  0.66387917  0.66387917  0.66387917  0.66387917  0.66387917  0.66387917
  0.71942828  0.71942828  0.71942828  0.71942828  0.71942828  1.12793433
  1.12793433  1.12793433  1.54501603  1.54501603  1.54501603  1.54501603
  1.54501603  1.54501603  1.54501603  1.54501603  1.54501603  1.56323237
  1.56323237  1.56323237  1.56323237  1.56323237  1.77815737  1.77815737
  1.77815737  1.77815737  1.77815737  1.77815737  1.77815737  3.01374239]
E1 = -1.068942455419569  E_coul = 0.2805502284132164
Extra cycle  E= -0.788392227006353  delta_E= -2.01e-14  |g|= 3.34e-08  |ddm|= 1.03e-06
    CPU time for scf_cycle    201.63 sec, wall time      1.80 sec
    CPU time for SCF    201.63 sec, wall time      1.80 sec
converged SCF energy = -0.788392227006353
