#INFO: **** input file is /home/nkousuke/lustre/toBeSync/turboRVB/05turbo-genius-development/turbogenius_paper/04data/sanity_checks/03pyscf_HF_turbo_VMC_via_trexio/00open_boundary/results/N/pyscf-HF-workflow/run.py ****

from pyscf_wrapper import Pyscf_wrapper

# input variables
pyscf_chkfile="pyscf.chk"
structure_file="N.xyz"

# input variables
omp_num_threads=128
charge=0
spin=3
basis="ccecp-ccpv6z"
ecp="ccecp"
scf_method="HF"
dft_xc="NA"
solver_newton=False
MP2_flag=False
CCSD_flag=False
pyscf_output="out.pyscf"
twist_average=False
exp_to_discard=0.0
kpt=[0.0, 0.0, 0.0]
kpt_grid=[1, 1, 1]
smearing_method="fermi"
smearing_sigma=0.0

pyscf_calc=Pyscf_wrapper(
                        structure_file=structure_file,
                        chkfile=pyscf_chkfile,
                        )

pyscf_calc.run_pyscf(
                  omp_num_threads=omp_num_threads,
                  charge=charge,
                  spin=spin,
                  basis=basis,
                  ecp=ecp,
                  scf_method=scf_method,
                  dft_xc=dft_xc,
                  solver_newton=solver_newton,
                  MP2_flag=MP2_flag,
                  CCSD_flag=CCSD_flag,
                  pyscf_output=pyscf_output,
                  twist_average=twist_average,
                  exp_to_discard=exp_to_discard,
                  kpt=kpt,
                  kpt_grid=kpt_grid,
                  smearing_method=smearing_method,
                  smearing_sigma=smearing_sigma
                  )
                #INFO: ******************** input file end ********************


System: uname_result(system='Linux', node='spcc-275', release='5.4.0-66-generic', version='#74-Ubuntu SMP Wed Jan 27 22:54:38 UTC 2021', machine='x86_64', processor='x86_64')  Threads 128
Python 3.7.3 (default, Mar 27 2019, 22:11:17) 
[GCC 7.3.0]
numpy 1.20.1  scipy 1.7.3
Date: Mon Dec 19 18:10:32 2022
PySCF version 2.0.1
PySCF path  /home/nkousuke/application/anaconda3/lib/python3.7/site-packages/pyscf

[CONFIG] conf_file /home/nkousuke/.pyscf_conf.py
[INPUT] verbose = 5
[INPUT] max_memory = 505172.359375 
[INPUT] num. atoms = 1
[INPUT] num. electrons = 5
[INPUT] charge = 0
[INPUT] spin (= nelec alpha-beta = 2S) = 3
[INPUT] symmetry False subgroup None
[INPUT] Mole.unit = A
[INPUT]  1 N      0.000000000000   0.000000000000   0.000000000000 AA    0.000000000000   0.000000000000   0.000000000000 Bohr
[INPUT] ---------------- BASIS SET ---------------- 
[INPUT] l, kappa, [nprim/nctr], expnt,             c_1 c_2 ...
[INPUT] N
[INPUT] 0    0    [9    /1   ]  42.693822         -0.0009357
                                19.963207         0.0063295
                                9.334597          0.0105038
                                4.927819          -0.1653735
                                2.04092           -0.0005352
                                0.96708           0.2452063
                                0.476131          0.4582128
                                0.211443          0.3641224
                                0.098869          0.0620406
[INPUT] 0    0    [1    /1   ]  2.52367              1
[INPUT] 0    0    [1    /1   ]  1.054775             1
[INPUT] 0    0    [1    /1   ]  0.532875             1
[INPUT] 0    0    [1    /1   ]  0.213117             1
[INPUT] 0    0    [1    /1   ]  0.094558             1
[INPUT] 1    0    [9    /1   ]  18.925871         0.0073505
                                9.225603          0.0292844
                                4.581431          0.0652168
                                2.300164          0.1405153
                                1.154825          0.2328188
                                0.582039          0.2989556
                                0.290535          0.2802507
                                0.145867          0.1527995
                                0.073234          0.0355475
[INPUT] 1    0    [1    /1   ]  2.089489             1
[INPUT] 1    0    [1    /1   ]  1.61663              1
[INPUT] 1    0    [1    /1   ]  0.61003              1
[INPUT] 1    0    [1    /1   ]  0.268834             1
[INPUT] 1    0    [1    /1   ]  0.107258             1
[INPUT] 2    0    [1    /1   ]  6.733626             1
[INPUT] 2    0    [1    /1   ]  2.717512             1
[INPUT] 2    0    [1    /1   ]  1.413899             1
[INPUT] 2    0    [1    /1   ]  0.631889             1
[INPUT] 2    0    [1    /1   ]  0.245674             1
[INPUT] 3    0    [1    /1   ]  3.735653             1
[INPUT] 3    0    [1    /1   ]  1.865542             1
[INPUT] 3    0    [1    /1   ]  0.931762             1
[INPUT] 3    0    [1    /1   ]  0.391491             1
[INPUT] 4    0    [1    /1   ]  3.56488              1
[INPUT] 4    0    [1    /1   ]  1.777022             1
[INPUT] 4    0    [1    /1   ]  0.755                1
[INPUT] 5    0    [1    /1   ]  2.725575             1
[INPUT] 5    0    [1    /1   ]  1.171252             1
[INPUT] 6    0    [1    /1   ]  2.074152             1

nuclear repulsion = 0
number of shells = 27
number of NR pGTOs = 171
number of NR cGTOs = 139
basis = ccecp-ccpv6z
ecp = ccecp
CPU time:         5.56


******** <class 'pyscf.scf.rohf.ROHF'> ********
method = ROHF-RHF
initial guess = minao
damping factor = 0
level_shift factor = 0
DIIS = <class 'pyscf.scf.diis.CDIIS'>
diis_start_cycle = 1
diis_space = 8
SCF conv_tol = 1e-09
SCF conv_tol_grad = None
SCF max_cycles = 200
direct_scf = True
direct_scf_tol = 1e-13
chkfile to save SCF result = pyscf.chk
max_memory 505172 MB (current use 106 MB)
num. doubly occ = 1  num. singly occ = 3
Set gradient conv threshold to 3.16228e-05
E1 = -15.671246292248012  Ecoul = 6.618344252899555
init E= -9.05290203934846
cond(S) = 9961.584721547517
    CPU time for initialize scf    234.90 sec, wall time      2.52 sec
  HOMO = -0.195090264436187  LUMO = 0.199767729505852
                  Roothaan           | alpha              | beta
  Highest 2-occ = -0.943675226596702 | -0.943675226596703 | -0.943675226596703
  Lowest 0-occ =   0.199767729505852 |  0.199767729505853 |  0.199767729505853
  1-occ =         -0.195090264436197 | -0.195090264436194 | -0.195090264436194
  1-occ =         -0.195090264436194 | -0.195090264436194 | -0.195090264436194
  1-occ =         -0.195090264436187 | -0.195090264436194 | -0.195090264436194
  Roothaan mo_energy =
[-0.94367523 -0.19509026 -0.19509026 -0.19509026  0.19976773  0.31316436
  0.31316436  0.31316436  0.68501021  0.68501021  0.68501021  0.68501021
  0.68501021  1.03449959  1.22572075  1.22572075  1.22572075  1.51362452
  1.51362452  1.51362452  1.51362452  1.51362452  1.51362452  1.51362452
  2.0611527   2.0611527   2.0611527   2.0611527   2.0611527   3.38247067
  3.40291094  3.40291094  3.40291094  3.68867281  3.68867281  3.68867281
  3.68867281  3.68867281  3.68867281  3.68867281  3.68867281  3.68867281
  4.1787851   4.1787851   4.1787851   4.1787851   4.1787851   4.1787851
  4.1787851   5.14122924  5.14122924  5.14122924  5.14122924  5.14122924
  6.99606987  6.99606987  6.99606987  6.99606987  6.99606987  6.99606987
  6.99606987  6.99606987  6.99606987  6.99606987  6.99606987  8.39260327
  8.39260327  8.39260327  9.23194212  9.58184236  9.58184236  9.58184236
  9.58184236  9.58184236  9.58184236  9.58184236  9.86422417  9.86422417
  9.86422417  9.86422417  9.86422417  9.86422417  9.86422417  9.86422417
  9.86422417 11.82641963 11.82641963 11.82641963 11.82641963 11.82641963
 14.92555962 14.92555962 14.92555962 14.92555962 14.92555962 14.92555962
 14.92555962 14.92555962 14.92555962 14.92555962 14.92555962 14.92555962
 14.92555962 18.71917002 18.71917002 18.71917002 18.71917002 18.71917002
 18.71917002 18.71917002 18.71917002 18.71917002 18.71917002 18.71917002
 19.67067079 19.67067079 19.67067079 20.98904044 20.98904044 20.98904044
 20.98904044 20.98904044 20.98904044 20.98904044 22.8192456  22.8192456
 22.8192456  22.8192456  22.8192456  22.8192456  22.8192456  22.8192456
 22.8192456  25.40307959 28.06818946 28.06818946 28.06818946 28.06818946
 28.06818946]
E1 = -15.154622850304955  Ecoul = 5.572270622666267
cycle= 1 E= -9.58235222763869  delta_E= -0.529  |g|= 0.259  |ddm|= 1.05
    CPU time for cycle= 1     90.82 sec, wall time      0.82 sec
  HOMO = -0.314575975132611  LUMO = 0.181089950923557
                  Roothaan           | alpha              | beta
  Highest 2-occ =  -1.06362234304947 |  -1.25990373890483 | -0.867340947194117
  Lowest 0-occ =   0.181089950923557 |  0.162117290653864 |  0.200062611193245
  1-occ =         -0.314575975132615 | -0.641980450124848 | 0.0754224574376161
  1-occ =         -0.314575975132613 | -0.641980450124849 | 0.0754224574376174
  1-occ =         -0.314575975132611 | -0.641980450124848 | 0.0754224574376153
  Roothaan mo_energy =
[-1.06362234 -0.31457598 -0.31457598 -0.31457598  0.18108995  0.3078425
  0.3078425   0.3078425   0.65298247  0.65298247  0.65298247  0.65298247
  0.65298247  0.98272546  1.16697548  1.16697548  1.16697548  1.48157673
  1.48157673  1.48157673  1.48157673  1.48157673  1.48157673  1.48157673
  1.98412595  1.98412595  1.98412595  1.98412595  1.98412595  3.27685386
  3.28922467  3.28922467  3.28922467  3.63202954  3.63202954  3.63202954
  3.63202954  3.63202954  3.63202954  3.63202954  3.63202954  3.63202954
  4.09347153  4.09347153  4.09347153  4.09347153  4.09347153  4.09347153
  4.09347153  5.01205161  5.01205161  5.01205161  5.01205161  5.01205161
  6.91693835  6.91693835  6.91693835  6.91693835  6.91693835  6.91693835
  6.91693835  6.91693835  6.91693835  6.91693835  6.91693835  8.22471692
  8.22471692  8.22471692  9.05422979  9.43580321  9.43580321  9.43580321
  9.43580321  9.43580321  9.43580321  9.43580321  9.73606632  9.73606632
  9.73606632  9.73606632  9.73606632  9.73606632  9.73606632  9.73606632
  9.73606632 11.6404734  11.6404734  11.6404734  11.6404734  11.6404734
 14.80033709 14.80033709 14.80033709 14.80033709 14.80033709 14.80033709
 14.80033709 14.80033709 14.80033709 14.80033709 14.80033709 14.80033709
 14.80033709 18.55324419 18.55324419 18.55324419 18.55324419 18.55324419
 18.55324419 18.55324419 18.55324419 18.55324419 18.55324419 18.55324419
 19.44413046 19.44413046 19.44413046 20.77801018 20.77801018 20.77801018
 20.77801018 20.77801018 20.77801018 20.77801018 22.61847662 22.61847662
 22.61847662 22.61847662 22.61847662 22.61847662 22.61847662 22.61847662
 22.61847662 25.14338078 27.82397068 27.82397068 27.82397068 27.82397068
 27.82397068]
E1 = -15.816276678044801  Ecoul = 6.188018798244082
cycle= 2 E= -9.62825787980072  delta_E= -0.0459  |g|= 0.133  |ddm|= 0.742
    CPU time for cycle= 2     82.54 sec, wall time      0.65 sec
  HOMO = -0.193144544337937  LUMO = 0.196966673574059
                  Roothaan           | alpha              | beta
  Highest 2-occ = -0.956986780414626 |  -1.13201722116174 | -0.692834220536922
  Lowest 0-occ =   0.196966673574059 |  0.190622260401013 |  0.216300775320019
  1-occ =         -0.193144544337959 | -0.540304954309061 |  0.243532889565704
  1-occ =         -0.193144544337937 | -0.540304954309059 |  0.243532889565702
  1-occ =         -0.193144544337937 |  -0.54030495430906 |  0.243532889565703
  Roothaan mo_energy =
[-0.95698678 -0.19314454 -0.19314454 -0.19314454  0.19696667  0.3057422
  0.3057422   0.3057422   0.68136669  0.68136669  0.68136669  0.68136669
  0.68136669  1.02783584  1.21718871  1.21718871  1.21718871  1.50970612
  1.50970612  1.50970612  1.50970612  1.50970612  1.50970612  1.50970612
  2.05395576  2.05395576  2.05395576  2.05395576  2.05395576  3.37194309
  3.39311998  3.39311998  3.39311998  3.68217041  3.68217041  3.68217041
  3.68217041  3.68217041  3.68217041  3.68217041  3.68217041  3.68217041
  4.1703552   4.1703552   4.1703552   4.1703552   4.1703552   4.1703552
  4.1703552   5.13033249  5.13033249  5.13033249  5.13033249  5.13033249
  6.98753136  6.98753136  6.98753136  6.98753136  6.98753136  6.98753136
  6.98753136  6.98753136  6.98753136  6.98753136  6.98753136  8.37958122
  8.37958122  8.37958122  9.21778201  9.56966056  9.56966056  9.56966056
  9.56966056  9.56966056  9.56966056  9.56966056  9.85271517  9.85271517
  9.85271517  9.85271517  9.85271517  9.85271517  9.85271517  9.85271517
  9.85271517 11.81244495 11.81244495 11.81244495 11.81244495 11.81244495
 14.91388455 14.91388455 14.91388455 14.91388455 14.91388455 14.91388455
 14.91388455 14.91388455 14.91388455 14.91388455 14.91388455 14.91388455
 14.91388455 18.70567275 18.70567275 18.70567275 18.70567275 18.70567275
 18.70567275 18.70567275 18.70567275 18.70567275 18.70567275 18.70567275
 19.65476072 19.65476072 19.65476072 20.97382369 20.97382369 20.97382369
 20.97382369 20.97382369 20.97382369 20.97382369 22.80438096 22.80438096
 22.80438096 22.80438096 22.80438096 22.80438096 22.80438096 22.80438096
 22.80438096 25.38537744 28.05146152 28.05146152 28.05146152 28.05146152
 28.05146152]
E1 = -15.67614945245266  Ecoul = 6.042420766255589
cycle= 3 E= -9.63372868619707  delta_E= -0.00547  |g|= 0.0204  |ddm|= 0.235
    CPU time for cycle= 3     93.27 sec, wall time      0.73 sec
  HOMO = -0.181750513475812  LUMO = 0.200017852879281
                  Roothaan           | alpha              | beta
  Highest 2-occ = -0.942903562616656 |  -1.15905875057198 | -0.729018289577663
  Lowest 0-occ =   0.200017852879281 |  0.185775666434081 |  0.213289392713188
  1-occ =         -0.181750513475824 | -0.567760678970676 |  0.206317106884636
  1-occ =         -0.181750513475817 | -0.567760678970677 |  0.206317106884636
  1-occ =         -0.181750513475812 | -0.567760678970678 |  0.206317106884636
  Roothaan mo_energy =
[-0.94290356 -0.18175051 -0.18175051 -0.18175051  0.20001785  0.30505131
  0.30505131  0.30505131  0.68546468  0.68546468  0.68546468  0.68546468
  0.68546468  1.03515672  1.22270001  1.22270001  1.22270001  1.51416283
  1.51416283  1.51416283  1.51416283  1.51416283  1.51416283  1.51416283
  2.06215885  2.06215885  2.06215885  2.06215885  2.06215885  3.38361368
  3.40383914  3.40383914  3.40383914  3.68960015  3.68960015  3.68960015
  3.68960015  3.68960015  3.68960015  3.68960015  3.68960015  3.68960015
  4.17997104  4.17997104  4.17997104  4.17997104  4.17997104  4.17997104
  4.17997104  5.14260791  5.14260791  5.14260791  5.14260791  5.14260791
  6.99730091  6.99730091  6.99730091  6.99730091  6.99730091  6.99730091
  6.99730091  6.99730091  6.99730091  6.99730091  6.99730091  8.39398297
  8.39398297  8.39398297  9.23335524  9.58340516  9.58340516  9.58340516
  9.58340516  9.58340516  9.58340516  9.58340516  9.86580815  9.86580815
  9.86580815  9.86580815  9.86580815  9.86580815  9.86580815  9.86580815
  9.86580815 11.82793014 11.82793014 11.82793014 11.82793014 11.82793014
 14.92720767 14.92720767 14.92720767 14.92720767 14.92720767 14.92720767
 14.92720767 14.92720767 14.92720767 14.92720767 14.92720767 14.92720767
 14.92720767 18.72090812 18.72090812 18.72090812 18.72090812 18.72090812
 18.72090812 18.72090812 18.72090812 18.72090812 18.72090812 18.72090812
 19.67190161 19.67190161 19.67190161 20.99056301 20.99056301 20.99056301
 20.99056301 20.99056301 20.99056301 20.99056301 22.82088408 22.82088408
 22.82088408 22.82088408 22.82088408 22.82088408 22.82088408 22.82088408
 22.82088408 25.40418804 28.06948674 28.06948674 28.06948674 28.06948674
 28.06948674]
E1 = -15.676432539915133  Ecoul = 6.042578327172903
cycle= 4 E= -9.63385421274223  delta_E= -0.000126  |g|= 0.00303  |ddm|= 0.0433
    CPU time for cycle= 4     90.06 sec, wall time      0.71 sec
  HOMO = -0.182001896276413  LUMO = 0.199841049136181
                  Roothaan           | alpha              | beta
  Highest 2-occ = -0.943403873909325 |  -1.15802759107423 | -0.726772274768683
  Lowest 0-occ =   0.199841049136181 |  0.186371552814157 |  0.213637267793878
  1-occ =         -0.182001896276417 | -0.568826831418107 |  0.206161673730796
  1-occ =         -0.182001896276415 | -0.568826831418107 |  0.206161673730796
  1-occ =         -0.182001896276413 | -0.568826831418107 |  0.206161673730794
  Roothaan mo_energy =
[-0.94340387 -0.1820019  -0.1820019  -0.1820019   0.19984105  0.30458069
  0.30458069  0.30458069  0.68515633  0.68515633  0.68515633  0.68515633
  0.68515633  1.03462604  1.221966    1.221966    1.221966    1.51377469
  1.51377469  1.51377469  1.51377469  1.51377469  1.51377469  1.51377469
  2.06135404  2.06135404  2.06135404  2.06135404  2.06135404  3.38270797
  3.40285819  3.40285819  3.40285819  3.68889821  3.68889821  3.68889821
  3.68889821  3.68889821  3.68889821  3.68889821  3.68889821  3.68889821
  4.17904029  4.17904029  4.17904029  4.17904029  4.17904029  4.17904029
  4.17904029  5.14151741  5.14151741  5.14151741  5.14151741  5.14151741
  6.99634493  6.99634493  6.99634493  6.99634493  6.99634493  6.99634493
  6.99634493  6.99634493  6.99634493  6.99634493  6.99634493  8.39289916
  8.39289916  8.39289916  9.23224145  9.58215364  9.58215364  9.58215364
  9.58215364  9.58215364  9.58215364  9.58215364  9.86453913  9.86453913
  9.86453913  9.86453913  9.86453913  9.86453913  9.86453913  9.86453913
  9.86453913 11.82673223 11.82673223 11.82673223 11.82673223 11.82673223
 14.92588636 14.92588636 14.92588636 14.92588636 14.92588636 14.92588636
 14.92588636 14.92588636 14.92588636 14.92588636 14.92588636 14.92588636
 14.92588636 18.71950386 18.71950386 18.71950386 18.71950386 18.71950386
 18.71950386 18.71950386 18.71950386 18.71950386 18.71950386 18.71950386
 19.6709707  19.6709707  19.6709707  20.98935867 20.98935867 20.98935867
 20.98935867 20.98935867 20.98935867 20.98935867 22.81957209 22.81957209
 22.81957209 22.81957209 22.81957209 22.81957209 22.81957209 22.81957209
 22.81957209 25.40338075 28.06849863 28.06849863 28.06849863 28.06849863
 28.06849863]
E1 = -15.6692666338479  Ecoul = 6.035401930752739
cycle= 5 E= -9.63386470309516  delta_E= -1.05e-05  |g|= 0.00118  |ddm|= 0.0179
    CPU time for cycle= 5     91.72 sec, wall time      0.75 sec
  HOMO = -0.182401324668319  LUMO = 0.19976344722756
                  Roothaan           | alpha              | beta
  Highest 2-occ = -0.943679569559873 |  -1.15948048641628 | -0.728845551855677
  Lowest 0-occ =    0.19976344722756 |  0.185946896081104 |  0.213417460826948
  1-occ =         -0.182401324668337 |  -0.57004598692261 |  0.204332707854908
  1-occ =         -0.182401324668332 | -0.570045986922609 |   0.20433270785491
  1-occ =         -0.182401324668319 |  -0.57004598692261 |   0.20433270785491
  Roothaan mo_energy =
[-0.94367957 -0.18240132 -0.18240132 -0.18240132  0.19976345  0.30472645
  0.30472645  0.30472645  0.68500509  0.68500509  0.68500509  0.68500509
  0.68500509  1.03449197  1.22175312  1.22175312  1.22175312  1.51361747
  1.51361747  1.51361747  1.51361747  1.51361747  1.51361747  1.51361747
  2.06114184  2.06114184  2.06114184  2.06114184  2.06114184  3.38245857
  3.40259905  3.40259905  3.40259905  3.68866132  3.68866132  3.68866132
  3.68866132  3.68866132  3.68866132  3.68866132  3.68866132  3.68866132
  4.17877239  4.17877239  4.17877239  4.17877239  4.17877239  4.17877239
  4.17877239  5.14121632  5.14121632  5.14121632  5.14121632  5.14121632
  6.99605568  6.99605568  6.99605568  6.99605568  6.99605568  6.99605568
  6.99605568  6.99605568  6.99605568  6.99605568  6.99605568  8.39259152
  8.39259152  8.39259152  9.23193155  9.58182871  9.58182871  9.58182871
  9.58182871  9.58182871  9.58182871  9.58182871  9.86420936  9.86420936
  9.86420936  9.86420936  9.86420936  9.86420936  9.86420936  9.86420936
  9.86420936 11.82640837 11.82640837 11.82640837 11.82640837 11.82640837
 14.92554367 14.92554367 14.92554367 14.92554367 14.92554367 14.92554367
 14.92554367 14.92554367 14.92554367 14.92554367 14.92554367 14.92554367
 14.92554367 18.71915591 18.71915591 18.71915591 18.71915591 18.71915591
 18.71915591 18.71915591 18.71915591 18.71915591 18.71915591 18.71915591
 19.67066228 19.67066228 19.67066228 20.98903    20.98903    20.98903
 20.98903    20.98903    20.98903    20.98903    22.81923389 22.81923389
 22.81923389 22.81923389 22.81923389 22.81923389 22.81923389 22.81923389
 22.81923389 25.40307463 28.06818203 28.06818203 28.06818203 28.06818203
 28.06818203]
E1 = -15.671142565159256  Ecoul = 6.0372762867663194
cycle= 6 E= -9.63386627839294  delta_E= -1.58e-06  |g|= 6.26e-05  |ddm|= 0.00485
    CPU time for cycle= 6     94.49 sec, wall time      0.80 sec
  HOMO = -0.182402926547006  LUMO = 0.199768613895825
                  Roothaan           | alpha              | beta
  Highest 2-occ = -0.943675049855293 |  -1.15909548793285 | -0.728303821874975
  Lowest 0-occ =   0.199768613895825 |  0.186052480810947 |  0.213475909594545
  1-occ =          -0.18240292654701 | -0.569730228407487 |  0.204878274497014
  1-occ =         -0.182402926547009 | -0.569730228407488 |  0.204878274497014
  1-occ =         -0.182402926547006 | -0.569730228407489 |  0.204878274497011
  Roothaan mo_energy =
[-0.94367505 -0.18240293 -0.18240293 -0.18240293  0.19976861  0.30472837
  0.30472837  0.30472837  0.68500915  0.68500915  0.68500915  0.68500915
  0.68500915  1.03449808  1.22176908  1.22176908  1.22176908  1.51362335
  1.51362335  1.51362335  1.51362335  1.51362335  1.51362335  1.51362335
  2.06115105  2.06115105  2.06115105  2.06115105  2.06115105  3.38246793
  3.40260857  3.40260857  3.40260857  3.68866982  3.68866982  3.68866982
  3.68866982  3.68866982  3.68866982  3.68866982  3.68866982  3.68866982
  4.17878211  4.17878211  4.17878211  4.17878211  4.17878211  4.17878211
  4.17878211  5.14122653  5.14122653  5.14122653  5.14122653  5.14122653
  6.99606543  6.99606543  6.99606543  6.99606543  6.99606543  6.99606543
  6.99606543  6.99606543  6.99606543  6.99606543  6.99606543  8.39260108
  8.39260108  8.39260108  9.23194137  9.58183962  9.58183962  9.58183962
  9.58183962  9.58183962  9.58183962  9.58183962  9.86422044  9.86422044
  9.86422044  9.86422044  9.86422044  9.86422044  9.86422044  9.86422044
  9.86422044 11.82641865 11.82641865 11.82641865 11.82641865 11.82641865
 14.92555483 14.92555483 14.92555483 14.92555483 14.92555483 14.92555483
 14.92555483 14.92555483 14.92555483 14.92555483 14.92555483 14.92555483
 14.92555483 18.71916761 18.71916761 18.71916761 18.71916761 18.71916761
 18.71916761 18.71916761 18.71916761 18.71916761 18.71916761 18.71916761
 19.67067004 19.67067004 19.67067004 20.98904015 20.98904015 20.98904015
 20.98904015 20.98904015 20.98904015 20.98904015 22.8192449  22.8192449
 22.8192449  22.8192449  22.8192449  22.8192449  22.8192449  22.8192449
 22.8192449  25.40308119 28.06819017 28.06819017 28.06819017 28.06819017
 28.06819017]
E1 = -15.671227530883906  Ecoul = 6.037361248153148
cycle= 7 E= -9.63386628273076  delta_E= -4.34e-09  |g|= 7.64e-06  |ddm|= 0.000206
    CPU time for cycle= 7     37.17 sec, wall time      0.34 sec
  HOMO = -0.182403559245829  LUMO = 0.199768600518295
                  Roothaan           | alpha              | beta
  Highest 2-occ = -0.943674826376733 |  -1.15907750465667 | -0.728277900854713
  Lowest 0-occ =   0.199768600518295 |  0.186057438608679 |   0.21347871365517
  1-occ =         -0.182403559245847 | -0.569716543038428 |  0.204904396632584
  1-occ =         -0.182403559245835 | -0.569716543038429 |  0.204904396632585
  1-occ =         -0.182403559245829 | -0.569716543038431 |  0.204904396632586
  Roothaan mo_energy =
[-0.94367483 -0.18240356 -0.18240356 -0.18240356  0.1997686   0.30472903
  0.30472903  0.30472903  0.68500895  0.68500895  0.68500895  0.68500895
  0.68500895  1.03449827  1.22176882  1.22176882  1.22176882  1.51362317
  1.51362317  1.51362317  1.51362317  1.51362317  1.51362317  1.51362317
  2.06115122  2.06115122  2.06115122  2.06115122  2.06115122  3.38246811
  3.40260904  3.40260904  3.40260904  3.68866977  3.68866977  3.68866977
  3.68866977  3.68866977  3.68866977  3.68866977  3.68866977  3.68866977
  4.17878231  4.17878231  4.17878231  4.17878231  4.17878231  4.17878231
  4.17878231  5.14122686  5.14122686  5.14122686  5.14122686  5.14122686
  6.99606558  6.99606558  6.99606558  6.99606558  6.99606558  6.99606558
  6.99606558  6.99606558  6.99606558  6.99606558  6.99606558  8.39260139
  8.39260139  8.39260139  9.2319417   9.58184014  9.58184014  9.58184014
  9.58184014  9.58184014  9.58184014  9.58184014  9.86422096  9.86422096
  9.86422096  9.86422096  9.86422096  9.86422096  9.86422096  9.86422096
  9.86422096 11.82641908 11.82641908 11.82641908 11.82641908 11.82641908
 14.92555539 14.92555539 14.92555539 14.92555539 14.92555539 14.92555539
 14.92555539 14.92555539 14.92555539 14.92555539 14.92555539 14.92555539
 14.92555539 18.7191683  18.7191683  18.7191683  18.7191683  18.7191683
 18.7191683  18.7191683  18.7191683  18.7191683  18.7191683  18.7191683
 19.67067005 19.67067005 19.67067005 20.98904057 20.98904057 20.98904057
 20.98904057 20.98904057 20.98904057 20.98904057 22.81924547 22.81924547
 22.81924547 22.81924547 22.81924547 22.81924547 22.81924547 22.81924547
 22.81924547 25.40308099 28.06819025 28.06819025 28.06819025 28.06819025
 28.06819025]
E1 = -15.671238365623704  Ecoul = 6.037372082824525
cycle= 8 E= -9.63386628279918  delta_E= -6.84e-11  |g|= 1.41e-07  |ddm|= 3.31e-05
    CPU time for cycle= 8    150.77 sec, wall time      1.22 sec
  HOMO = -0.182403630636893  LUMO = 0.199768602749487
                  Roothaan           | alpha              | beta
  Highest 2-occ = -0.943674863377198 |  -1.15907520302381 |  -0.72827452373059
  Lowest 0-occ =   0.199768602749487 |  0.186058128222491 |   0.21347907727649
  1-occ =           -0.1824036306369 | -0.569714824406758 |  0.204907605158909
  1-occ =         -0.182403630636898 | -0.569714824406756 |  0.204907605158909
  1-occ =         -0.182403630636893 | -0.569714824406757 |  0.204907605158908
  Roothaan mo_energy =
[-0.94367486 -0.18240363 -0.18240363 -0.18240363  0.1997686   0.30472905
  0.30472905  0.30472905  0.68500895  0.68500895  0.68500895  0.68500895
  0.68500895  1.03449826  1.22176883  1.22176883  1.22176883  1.51362317
  1.51362317  1.51362317  1.51362317  1.51362317  1.51362317  1.51362317
  2.06115121  2.06115121  2.06115121  2.06115121  2.06115121  3.38246809
  3.402609    3.402609    3.402609    3.68866977  3.68866977  3.68866977
  3.68866977  3.68866977  3.68866977  3.68866977  3.68866977  3.68866977
  4.17878229  4.17878229  4.17878229  4.17878229  4.17878229  4.17878229
  4.17878229  5.14122683  5.14122683  5.14122683  5.14122683  5.14122683
  6.99606557  6.99606557  6.99606557  6.99606557  6.99606557  6.99606557
  6.99606557  6.99606557  6.99606557  6.99606557  6.99606557  8.39260134
  8.39260134  8.39260134  9.23194164  9.5818401   9.5818401   9.5818401
  9.5818401   9.5818401   9.5818401   9.5818401   9.86422093  9.86422093
  9.86422093  9.86422093  9.86422093  9.86422093  9.86422093  9.86422093
  9.86422093 11.82641902 11.82641902 11.82641902 11.82641902 11.82641902
 14.92555537 14.92555537 14.92555537 14.92555537 14.92555537 14.92555537
 14.92555537 14.92555537 14.92555537 14.92555537 14.92555537 14.92555537
 14.92555537 18.71916825 18.71916825 18.71916825 18.71916825 18.71916825
 18.71916825 18.71916825 18.71916825 18.71916825 18.71916825 18.71916825
 19.67066997 19.67066997 19.67066997 20.98904049 20.98904049 20.98904049
 20.98904049 20.98904049 20.98904049 20.98904049 22.8192454  22.8192454
 22.8192454  22.8192454  22.8192454  22.8192454  22.8192454  22.8192454
 22.8192454  25.40308088 28.06819016 28.06819016 28.06819016 28.06819016
 28.06819016]
E1 = -15.671238733159978  Ecoul = 6.037372450360798
Extra cycle  E= -9.63386628279918  delta_E=    0  |g|= 9.07e-08  |ddm|= 7.76e-07
    CPU time for scf_cycle   1058.37 sec, wall time      9.29 sec
    CPU time for SCF   1058.62 sec, wall time      9.29 sec
converged SCF energy = -9.63386628279918
