#INFO: **** input file is /home/nkousuke/lustre/toBeSync/turboRVB/05turbo-genius-development/turbogenius_paper/04data/sanity_checks/02pyscf_prep_LDA_via_trexio/00open_boundary/results/CS/pyscf-LDA-workflow/run.py ****

from pyscf_wrapper import Pyscf_wrapper

# input variables
pyscf_chkfile="pyscf.chk"
structure_file="CS.xyz"

# input variables
omp_num_threads=128
charge=0
spin=0
basis="ccecp-ccpvqz"
ecp="ccecp"
scf_method="DFT"
dft_xc="LDA_X,LDA_C_PZ"
solver_newton=False
MP2_flag=False
CCSD_flag=False
pyscf_output="out.pyscf"
twist_average=False
exp_to_discard=0.1
kpt=[0.0, 0.0, 0.0]
kpt_grid=[1, 1, 1]
smearing_method="fermi"
smearing_sigma=0.0

pyscf_calc=Pyscf_wrapper(
                        structure_file=structure_file,
                        chkfile=pyscf_chkfile,
                        )

pyscf_calc.run_pyscf(
                  omp_num_threads=omp_num_threads,
                  charge=charge,
                  spin=spin,
                  basis=basis,
                  ecp=ecp,
                  scf_method=scf_method,
                  dft_xc=dft_xc,
                  solver_newton=solver_newton,
                  MP2_flag=MP2_flag,
                  CCSD_flag=CCSD_flag,
                  pyscf_output=pyscf_output,
                  twist_average=twist_average,
                  exp_to_discard=exp_to_discard,
                  kpt=kpt,
                  kpt_grid=kpt_grid,
                  smearing_method=smearing_method,
                  smearing_sigma=smearing_sigma
                  )
                #INFO: ******************** input file end ********************


System: uname_result(system='Linux', node='spcc-106', release='5.4.0-66-generic', version='#74-Ubuntu SMP Wed Jan 27 22:54:38 UTC 2021', machine='x86_64', processor='x86_64')  Threads 128
Python 3.7.3 (default, Mar 27 2019, 22:11:17) 
[GCC 7.3.0]
numpy 1.20.1  scipy 1.7.3
Date: Thu Dec 22 06:22:21 2022
PySCF version 2.0.1
PySCF path  /home/nkousuke/application/anaconda3/lib/python3.7/site-packages/pyscf

[CONFIG] conf_file /home/nkousuke/.pyscf_conf.py
[INPUT] verbose = 5
[INPUT] max_memory = 506515.84765625 
[INPUT] num. atoms = 2
[INPUT] num. electrons = 10
[INPUT] charge = 0
[INPUT] spin (= nelec alpha-beta = 2S) = 0
[INPUT] symmetry False subgroup None
[INPUT] Mole.unit = A
[INPUT]  1 C      0.000000000000   0.000000000000  -1.116400000000 AA    0.000000000000   0.000000000000  -2.109690245464 Bohr
[INPUT]  2 S      0.000000000000   0.000000000000   0.418600000000 AA    0.000000000000   0.000000000000   0.791039355743 Bohr
[INPUT] ---------------- BASIS SET ---------------- 
[INPUT] l, kappa, [nprim/nctr], expnt,             c_1 c_2 ...
[INPUT] S
[INPUT] 0    0    [10   /1   ]  14.05257          0.002102
                                7.864913          -0.011042
                                4.401818          0.086618
                                2.4636            -0.271004
                                1.378823          -0.151274
                                0.771696          0.136044
                                0.431901          0.39436
                                0.241726          0.432098
                                0.135289          0.230974
                                0.075718          0.051205
[INPUT] 0    0    [1    /1   ]  0.818729             1
[INPUT] 0    0    [1    /1   ]  0.332501             1
[INPUT] 0    0    [1    /1   ]  0.135035             1
[INPUT] 1    0    [10   /1   ]  6.808844          -0.003573
                                3.94156           0.001903
                                2.281723          -0.065016
                                1.320863          0.042305
                                0.764632          0.158772
                                0.442637          0.278172
                                0.256237          0.293821
                                0.148333          0.248015
                                0.085868          0.114905
                                0.049708          0.032934
[INPUT] 1    0    [1    /1   ]  2.088209             1
[INPUT] 1    0    [1    /1   ]  0.838124             1
[INPUT] 1    0    [1    /1   ]  0.33639              1
[INPUT] 2    0    [1    /1   ]  1.68189              1
[INPUT] 2    0    [1    /1   ]  0.613672             1
[INPUT] 2    0    [1    /1   ]  0.223911             1
[INPUT] 3    0    [1    /1   ]  0.898397             1
[INPUT] 3    0    [1    /1   ]  0.339271             1
[INPUT] 4    0    [1    /1   ]  0.691446             1
[INPUT] C
[INPUT] 0    0    [9    /1   ]  13.073594         0.0051583
                                6.541187          0.0603424
                                4.573411          -0.1978471
                                1.637494          -0.081034
                                0.819297          0.2321726
                                0.409924          0.2914643
                                0.2313            0.4336405
                                0.102619          0.213194
                                0.051344          0.0049848
[INPUT] 0    0    [1    /1   ]  0.846879             1
[INPUT] 0    0    [1    /1   ]  0.269659             1
[INPUT] 0    0    [1    /1   ]  0.109576             1
[INPUT] 1    0    [9    /1   ]  9.934169          0.0209076
                                3.886955          0.0572698
                                1.871016          0.1122682
                                0.935757          0.2130082
                                0.468003          0.2835815
                                0.239473          0.3011207
                                0.117063          0.2016934
                                0.058547          0.0453575
                                0.029281          0.0029775
[INPUT] 1    0    [1    /1   ]  0.804681             1
[INPUT] 1    0    [1    /1   ]  0.313254             1
[INPUT] 1    0    [1    /1   ]  0.105389             1
[INPUT] 2    0    [1    /1   ]  2.01376              1
[INPUT] 2    0    [1    /1   ]  0.684884             1
[INPUT] 2    0    [1    /1   ]  0.240171             1
[INPUT] 3    0    [1    /1   ]  0.457302             1
[INPUT] 3    0    [1    /1   ]  1.32493              1
[INPUT] 4    0    [1    /1   ]  1.03418              1

nuclear repulsion = 8.27378049646905
number of shells = 28
number of NR pGTOs = 176
number of NR cGTOs = 108
basis = ccecp-ccpvqz
ecp = ccecp
CPU time:         3.48


******** <class 'pyscf.df.df_jk.density_fit.<locals>.DFHF'> ********
method = DFHF-RKS-RHF
initial guess = minao
damping factor = 0
level_shift factor = 0
DIIS = <class 'pyscf.scf.diis.CDIIS'>
diis_start_cycle = 1
diis_space = 8
SCF conv_tol = 1e-09
SCF conv_tol_grad = None
SCF max_cycles = 200
direct_scf = True
direct_scf_tol = 1e-13
chkfile to save SCF result = pyscf.chk
max_memory 506515 MB (current use 106 MB)
XC library pyscf.dft.libxc version 5.1.7
    S. Lehtola, C. Steigemann, M. J. Oliveira, and M. A. Marques, SoftwareX 7, 1 (2018)
XC functionals = LDA_X,LDA_C_PZ
    P. A. M. Dirac, Math. Proc. Cambridge Philos. Soc. 26, 376 (1930)
    F. Bloch, Z. Phys. 57, 545 (1929)
    J. P. Perdew and A. Zunger, Phys. Rev. B 23, 5048 (1981)
radial grids: 
    Treutler-Ahlrichs [JCP 102, 346 (1995); DOI:10.1063/1.469408] (M4) radial grids
    
becke partition: Becke, JCP 88, 2547 (1988); DOI:10.1063/1.454033
pruning grids: <function nwchem_prune at 0x14c2cf0707b8>
grids dens level: 3
symmetrized grids: False
atomic radii adjust function: <function treutler_atomic_radii_adjust at 0x14c2cf0706a8>
small_rho_cutoff = 1e-07
Set gradient conv threshold to 3.16228e-05
atom C rad-grids = 75, ang-grids = [ 50  50  50  50  50  50  50  50  50  50  50  50  50  50  50  50  50  50
  50  50  50  50  50  86  86  86  86  86  86  86  86  86  86 266 266 266
 266 266 266 266 302 302 302 302 302 302 302 302 302 302 302 302 302 302
 302 302 302 302 302 302 266 266 266 266 266 266 266 266 266 266 266 266
 266 266 266]
atom S rad-grids = 80, ang-grids = [ 50  50  50  50  50  50  50  50  50  50  50  50  50  50  50  50  50  50
  50  50  50  50  50  50  86  86  86  86  86  86  86  86  86  86  86  86
  86 350 350 350 350 350 350 350 350 350 434 434 434 434 434 434 434 434
 434 434 434 434 434 434 434 434 434 434 350 350 350 350 350 350 350 350
 350 350 350 350 350 350 350 350]
tot grids = 32782
Drop grids 1525
    CPU time for setting up grids      8.85 sec, wall time      0.08 sec
nelec by numeric integration = 10.000000111396242
    CPU time for vxc     34.25 sec, wall time      0.27 sec
Even tempered Gaussians are generated as DF auxbasis for  S C
  ETB auxbasis for S  [[0, [19.383808, 1]], [0, [9.691904, 1]], [0, [4.845952, 1]], [0, [2.422976, 1]], [0, [1.211488, 1]], [0, [0.605744, 1]], [0, [0.302872, 1]], [0, [0.151436, 1]], [1, [15.705532909913755, 1]], [1, [7.852766454956877, 1]], [1, [3.9263832274784387, 1]], [1, [1.9631916137392194, 1]], [1, [0.9815958068696097, 1]], [1, [0.49079790343480484, 1]], [1, [0.24539895171740242, 1]], [1, [0.12269947585870121, 1]], [2, [12.725248, 1]], [2, [6.362624, 1]], [2, [3.181312, 1]], [2, [1.590656, 1]], [2, [0.795328, 1]], [2, [0.397664, 1]], [2, [0.198832, 1]], [2, [0.099416, 1]], [3, [6.751975124276451, 1]], [3, [3.3759875621382256, 1]], [3, [1.6879937810691128, 1]], [3, [0.8439968905345564, 1]], [3, [0.4219984452672782, 1]], [3, [0.2109992226336391, 1]], [4, [3.582576, 1]], [4, [1.791288, 1]], [4, [0.895644, 1]], [4, [0.447822, 1]]]
  ETB auxbasis for C  [[0, [13.144064, 1]], [0, [6.572032, 1]], [0, [3.286016, 1]], [0, [1.643008, 1]], [0, [0.821504, 1]], [0, [0.410752, 1]], [0, [0.205376, 1]], [0, [0.102688, 1]], [1, [19.852159834527225, 1]], [1, [9.926079917263612, 1]], [1, [4.963039958631806, 1]], [1, [2.481519979315903, 1]], [1, [1.2407599896579515, 1]], [1, [0.6203799948289758, 1]], [1, [0.3101899974144879, 1]], [1, [0.15509499870724394, 1]], [1, [0.07754749935362197, 1]], [2, [14.991872, 1]], [2, [7.495936, 1]], [2, [3.747968, 1]], [2, [1.873984, 1]], [2, [0.936992, 1]], [2, [0.468496, 1]], [2, [0.234248, 1]], [2, [0.117124, 1]], [2, [0.058562, 1]], [3, [5.36701994787573, 1]], [3, [2.683509973937865, 1]], [3, [1.3417549869689325, 1]], [3, [0.6708774934844662, 1]], [3, [0.3354387467422331, 1]], [3, [0.16771937337111656, 1]], [4, [3.842736, 1]], [4, [1.921368, 1]], [4, [0.960684, 1]], [4, [0.480342, 1]]]
num shells = 70, num cGTOs = 308
    CPU time for df-vj     37.90 sec, wall time      0.30 sec
E1 = -40.64473902112125  Ecoul = 20.45990176431173  Exc = -3.6399296150674694
init E= -15.5509863754079
cond(S) = 11038.145464704088
    CPU time for initialize scf    172.90 sec, wall time      1.48 sec
  HOMO = -0.321541460815003  LUMO = -0.142738369554132
  mo_energy =
[-0.82169746 -0.4881041  -0.34828129 -0.34828129 -0.32154146 -0.14273837
 -0.14273837  0.03716193  0.10502148  0.18351893  0.18351893  0.19372272
  0.20338798  0.20338801  0.26450584  0.27563144  0.27563144  0.34610215
  0.34610215  0.48709641  0.50171424  0.50171428  0.65214554  0.71927197
  0.73237246  0.73237246  0.95124507  0.95124507  1.01376076  1.01376076
  1.02590284  1.02590284  1.05393951  1.1303158   1.13031606  1.20382833
  1.21167584  1.21167584  1.38487912  1.38487912  1.47524258  1.53680691
  1.53680691  1.69456547  1.77297968  1.77297972  1.83670915  1.83670915
  1.89310816  1.89310841  1.93268095  1.94190678  1.94190678  2.16468992
  2.37728813  2.37728813  2.69006261  2.86236586  2.87215139  2.87215774
  2.90051302  2.90051302  3.02597001  3.02597006  3.08990505  3.08990505
  3.18368255  3.18368255  3.24563064  3.35131124  3.351312    3.51677756
  3.51677756  3.72996126  3.74046094  3.74047104  4.22863061  4.22863061
  4.6174189   4.76683148  4.76683861  4.88122413  4.88122413  5.12544081
  5.12544081  5.30149821  5.30149822  5.37123551  5.37123551  5.38097545
  5.57794702  5.58646912  5.58646912  5.6246127   5.62461405  5.9051691
  5.9051691   6.24104868  6.24105849  6.6873251   7.19549826  7.19549826
  7.4667806   8.52631597  8.52631597  9.66047343 14.68986417 16.7454711 ]
nelec by numeric integration = 10.000000100761607
    CPU time for vxc     35.28 sec, wall time      0.27 sec
    CPU time for df-vj      1.54 sec, wall time      0.01 sec
E1 = -41.35078103143293  Ecoul = 21.249458178331388  Exc = -3.770737111614584
cycle= 1 E= -15.5982794682471  delta_E= -0.0473  |g|= 0.542  |ddm|= 2.69
    CPU time for cycle= 1     76.25 sec, wall time      0.59 sec
  HOMO = -0.142014450019468  LUMO = -0.0426254520518112
  mo_energy =
[-0.76593606 -0.47679813 -0.35026564 -0.35026564 -0.14201445 -0.04262545
 -0.04262545  0.03977268  0.08325157  0.16096187  0.16096192  0.20562495
  0.20562495  0.27326424  0.31559819  0.32249899  0.32249899  0.34165921
  0.34165921  0.49176752  0.5789364   0.57893644  0.6971865   0.76038341
  0.81002787  0.81002787  0.90508711  0.90508711  0.97606522  0.97606531
  1.02240969  1.02240969  1.04513303  1.09075521  1.09075535  1.22745564
  1.22745564  1.25127707  1.47969141  1.47969141  1.65791767  1.65791767
  1.6745291   1.80326165  1.84578034  1.84578034  1.89849264  1.89849269
  2.04492464  2.06494923  2.06494954  2.10100073  2.11049247  2.11049247
  2.4492484   2.4492484   2.72122429  2.79886139  2.79886721  2.86740614
  2.86740614  2.87955775  3.00299791  3.00299791  3.02376864  3.02376873
  3.17647033  3.17647033  3.27803398  3.29039391  3.29039494  3.43920833
  3.43920833  3.66739687  3.66740601  3.78812198  4.27586298  4.27586298
  4.71650331  4.96769437  4.96770129  5.08235944  5.08235944  5.40389365
  5.40389365  5.51151054  5.51151063  5.6148819   5.6148819   5.62951016
  5.80816767  5.81820774  5.81820774  5.86404928  5.86405059  6.16340282
  6.16340282  6.52052973  6.52053939  6.91985401  7.43189114  7.43189114
  7.64907321  8.4494061   8.4494061   9.67548449 14.63148361 17.08891738]
nelec by numeric integration = 10.000000124639923
    CPU time for vxc     34.79 sec, wall time      0.27 sec
    CPU time for df-vj      2.05 sec, wall time      0.01 sec
E1 = -39.97038453669399  Ecoul = 20.40552272242542  Exc = -3.6377602509657176
cycle= 2 E= -14.9288415687652  delta_E= 0.669  |g|= 1.37  |ddm|= 4.37
    CPU time for cycle= 2     77.31 sec, wall time      0.61 sec
  HOMO = -0.267529837882869  LUMO = -0.119757378702217
  mo_energy =
[-0.77013294 -0.46922969 -0.32405018 -0.32405018 -0.26752984 -0.11975738
 -0.11975738  0.05088748  0.11061977  0.19854431  0.19854431  0.20635138
  0.20635141  0.22090478  0.27748753  0.2910141   0.2910141   0.35076251
  0.35076251  0.49899322  0.51628643  0.51628646  0.67635981  0.73772752
  0.75493112  0.75493112  0.9491178   0.9491178   1.02346349  1.0234635
  1.04935496  1.04935496  1.06898815  1.13542697  1.13542723  1.23106773
  1.23106773  1.23641563  1.40172992  1.40172992  1.52247163  1.55738896
  1.55738896  1.72693001  1.80246058  1.80246063  1.86014412  1.86014412
  1.92596094  1.9259612   1.97849705  1.98568129  1.98568129  2.16744554
  2.40778722  2.40778722  2.72256183  2.87217815  2.87218431  2.89028732
  2.91272213  2.91272213  3.05563159  3.05563159  3.09506265  3.09506265
  3.21661751  3.21661751  3.28776759  3.35755266  3.35755355  3.52414647
  3.52414647  3.75742292  3.75743273  3.76088212  4.26979288  4.26979288
  4.66712739  4.80070526  4.80071188  4.92529743  4.92529743  5.18539468
  5.18539468  5.35587591  5.35587607  5.41587687  5.41587687  5.44530429
  5.64253104  5.65006731  5.65006731  5.67999172  5.67999295  5.97541826
  5.97541826  6.29956496  6.29957416  6.75940223  7.25925103  7.25925103
  7.52798666  8.55559617  8.55559617  9.70795781 14.73455236 16.82669931]
nelec by numeric integration = 10.000000104523592
    CPU time for vxc     39.90 sec, wall time      0.31 sec
    CPU time for df-vj      1.54 sec, wall time      0.01 sec
E1 = -40.985031139498886  Ecoul = 20.708055350491183  Exc = -3.6824690252311947
cycle= 3 E= -15.6856643177698  delta_E= -0.757  |g|= 0.131  |ddm|= 3.77
    CPU time for cycle= 3     92.13 sec, wall time      0.72 sec
  HOMO = -0.280338711386202  LUMO = -0.134746418972876
  mo_energy =
[-0.79016856 -0.49378559 -0.33928847 -0.33928847 -0.28033871 -0.13474642
 -0.13474642  0.0339007   0.1025321   0.19327038  0.19327038  0.19374822
  0.19374825  0.21703607  0.26545329  0.27977815  0.27977815  0.3372472
  0.3372472   0.48850567  0.51194121  0.51194124  0.66589897  0.72359819
  0.74950536  0.74950536  0.93833768  0.93833768  1.00785125  1.00785126
  1.03001422  1.03001422  1.05528239  1.1182045   1.11820473  1.21458908
  1.2179671   1.2179671   1.38886327  1.38886327  1.51473115  1.5541868
  1.5541868   1.71703794  1.79338747  1.7933875   1.84190325  1.84190325
  1.92048603  1.92048632  1.96672229  1.9769807   1.9769807   2.13880336
  2.39242215  2.39242215  2.70421008  2.85475553  2.85476165  2.86798267
  2.89501528  2.89501528  3.03432379  3.03432393  3.07025012  3.07025012
  3.19111784  3.19111784  3.26323347  3.33379962  3.33380039  3.49825723
  3.49825723  3.72841113  3.72842095  3.73788425  4.2449698   4.2449698
  4.64316928  4.79388224  4.79388885  4.9162353   4.9162353   5.16879531
  5.16879531  5.34155009  5.34155012  5.40484834  5.40484834  5.42849744
  5.62935395  5.6347488   5.6347488   5.67008286  5.67008397  5.96140708
  5.96140708  6.2834061   6.2834157   6.73762585  7.24093602  7.24093602
  7.50398047  8.51926507  8.51926507  9.67312093 14.69554467 16.80104101]
nelec by numeric integration = 10.000000106673347
    CPU time for vxc     40.21 sec, wall time      0.32 sec
    CPU time for df-vj      8.13 sec, wall time      0.06 sec
E1 = -41.06169575413453  Ecoul = 20.801911630393185  Exc = -3.7049393833207045
cycle= 4 E= -15.690943010593  delta_E= -0.00528  |g|= 0.0493  |ddm|= 0.217
    CPU time for cycle= 4     97.88 sec, wall time      0.77 sec
  HOMO = -0.269447041789681  LUMO = -0.125267046076466
  mo_energy =
[-0.77578273 -0.48300691 -0.32925676 -0.32925676 -0.26944704 -0.12526705
 -0.12526705  0.04174906  0.10636597  0.19821827  0.19821827  0.20043862
  0.20043865  0.22182418  0.27147677  0.28653032  0.28653032  0.34308259
  0.34308259  0.49425044  0.51707596  0.517076    0.67256643  0.73061603
  0.75438758  0.75438758  0.94396666  0.94396666  1.01574312  1.01574313
  1.04007325  1.04007325  1.0622833   1.12607073  1.12607097  1.22575335
  1.22575335  1.22609517  1.39677044  1.39677044  1.52365969  1.56020247
  1.56020247  1.72489005  1.80235228  1.8023523   1.85230849  1.85230849
  1.92788002  1.92788031  1.97708027  1.98599117  1.98599117  2.14808352
  2.40164038  2.40164038  2.7151343   2.86311842  2.86312455  2.87883326
  2.90433824  2.90433824  3.04664079  3.04664092  3.081018    3.081018
  3.20394315  3.20394315  3.27709793  3.34292498  3.34292579  3.50812754
  3.50812754  3.74156871  3.74157855  3.74988784  4.25869435  4.25869435
  4.65693621  4.80331611  4.80332276  4.92692262  4.92692262  5.18354538
  5.18354538  5.35519104  5.35519128  5.41686313  5.41686313  5.4435801
  5.64234854  5.64888897  5.64888897  5.68133921  5.68134028  5.97525951
  5.97525951  6.29837726  6.29838693  6.75409862  7.25608712  7.25608712
  7.51993563  8.53531029  8.53531029  9.69009898 14.7133598  16.82048523]
nelec by numeric integration = 10.000000106163434
    CPU time for vxc     38.10 sec, wall time      0.31 sec
    CPU time for df-vj      6.09 sec, wall time      0.05 sec
E1 = -40.977411153289346  Ecoul = 20.698626566795454  Exc = -3.6866585699066596
cycle= 5 E= -15.6916626599315  delta_E= -0.00072  |g|= 0.00944  |ddm|= 0.148
    CPU time for cycle= 5     90.58 sec, wall time      0.74 sec
  HOMO = -0.26949094384404  LUMO = -0.125835625718546
  mo_energy =
[-0.77736963 -0.48379751 -0.33044923 -0.33044923 -0.26949094 -0.12583563
 -0.12583563  0.04107564  0.10596989  0.1977055   0.1977055   0.19937805
  0.19937808  0.22195889  0.27102611  0.28599151  0.28599151  0.3424583
  0.3424583   0.49364407  0.51668645  0.51668648  0.67218083  0.73016592
  0.75425189  0.75425189  0.94299154  0.94299154  1.0146353   1.01463531
  1.03890623  1.03890623  1.06150607  1.12498876  1.12498899  1.22510745
  1.22519454  1.22519454  1.39622296  1.39622296  1.52387897  1.55978988
  1.55978988  1.72454408  1.80168769  1.8016877   1.85103762  1.85103762
  1.92778967  1.92778994  1.97661887  1.98585823  1.98585823  2.14720335
  2.40105806  2.40105806  2.71395365  2.86171533  2.86172145  2.87808683
  2.90301364  2.90301364  3.04501757  3.04501769  3.07940085  3.07940085
  3.20252793  3.20252793  3.27553949  3.34196966  3.34197047  3.50705696
  3.50705696  3.73973499  3.73974482  3.74899935  4.25739031  4.25739031
  4.65623899  4.80290991  4.80291657  4.92638438  4.92638438  5.18319343
  5.18319343  5.35427411  5.35427436  5.41659499  5.41659499  5.44293902
  5.64202139  5.64833728  5.64833728  5.6814413   5.6814425   5.97511633
  5.97511633  6.29803588  6.29804529  6.75357315  7.25559523  7.25559523
  7.5193432   8.53322804  8.53322804  9.68844982 14.71108238 16.82009818]
nelec by numeric integration = 10.000000106409372
    CPU time for vxc     38.93 sec, wall time      0.31 sec
    CPU time for df-vj      8.56 sec, wall time      0.07 sec
E1 = -40.983548535303456  Ecoul = 20.705716975632164  Exc = -3.6876393137959047
cycle= 6 E= -15.6916903769981  delta_E= -2.77e-05  |g|= 0.00195  |ddm|= 0.0124
    CPU time for cycle= 6     96.19 sec, wall time      0.76 sec
  HOMO = -0.269889315816  LUMO = -0.126274055357096
  mo_energy =
[-0.77778731 -0.48437048 -0.33084475 -0.33084475 -0.26988932 -0.12627406
 -0.12627406  0.04070016  0.10576331  0.19753474  0.19753474  0.19905972
  0.19905975  0.2217937   0.27072813  0.28569347  0.28569347  0.34212546
  0.34212546  0.49340269  0.51647706  0.51647709  0.67191518  0.72985144
  0.75407097  0.75407097  0.94270932  0.94270932  1.01428775  1.01428776
  1.03851579  1.03851579  1.06119932  1.12458083  1.12458107  1.22466606
  1.22481055  1.22481055  1.39585148  1.39585148  1.52353069  1.55956522
  1.55956522  1.72424645  1.80136572  1.80136574  1.8506282   1.8506282
  1.92750215  1.92750241  1.97628716  1.98554038  1.98554038  2.14659267
  2.40067929  2.40067929  2.71355822  2.86130724  2.86131336  2.87756559
  2.90260942  2.90260942  3.04458259  3.04458271  3.0788608   3.0788608
  3.20202986  3.20202986  3.27509716  3.34143498  3.3414358   3.5064939
  3.5064939   3.73913853  3.73914835  3.74846948  4.25687203  4.25687203
  4.65567848  4.8025469   4.80255355  4.92602537  4.92602537  5.18259023
  5.18259023  5.35386192  5.35386212  5.41610891  5.41610891  5.4424587
  5.64161446  5.64788609  5.64788609  5.6810003   5.68100158  5.97464034
  5.97464034  6.29743148  6.29744079  6.75300324  7.25504442  7.25504442
  7.51871299  8.53251742  8.53251742  9.68775753 14.7103505  16.81928739]
nelec by numeric integration = 10.000000106440273
    CPU time for vxc     41.05 sec, wall time      0.33 sec
    CPU time for df-vj      7.95 sec, wall time      0.06 sec
E1 = -40.985539757136436  Ecoul = 20.708286418905942  Exc = -3.68821877570798
cycle= 7 E= -15.6916916174694  delta_E= -1.24e-06  |g|= 0.000782  |ddm|= 0.00518
    CPU time for cycle= 7    102.61 sec, wall time      0.81 sec
  HOMO = -0.269827403376854  LUMO = -0.126237554561114
  mo_energy =
[-0.77775302 -0.48436458 -0.33082332 -0.33082332 -0.2698274  -0.12623755
 -0.12623755  0.04070354  0.10576489  0.19755498  0.19755498  0.1990602
  0.19906022  0.2218317   0.27073701  0.28571236  0.28571236  0.3421249
  0.3421249   0.49341102  0.5165091   0.51650913  0.67193552  0.72986396
  0.75409998  0.75409998  0.94270788  0.94270788  1.01428731  1.01428732
  1.03852028  1.03852028  1.06120305  1.12457765  1.12457789  1.22468103
  1.22483379  1.22483379  1.39587985  1.39587985  1.52359978  1.55961229
  1.55961229  1.72428476  1.8014161   1.80141612  1.85064067  1.85064067
  1.92756169  1.92756195  1.97634005  1.98559803  1.98559803  2.1465662
  2.40070533  2.40070533  2.71357432  2.86129969  2.86130581  2.87757842
  2.90260995  2.90260995  3.04459159  3.04459171  3.07884773  3.07884773
  3.20203351  3.20203351  3.27511025  3.3414229   3.34142371  3.50647782
  3.50647782  3.73912815  3.73913798  3.74848961  4.25689074  4.25689074
  4.65571446  4.80262211  4.80262876  4.92609662  4.92609662  5.18268681
  5.18268681  5.35393313  5.35393331  5.41619829  5.41619829  5.44254066
  5.64168944  5.64796203  5.64796203  5.68108338  5.68108468  5.97472529
  5.97472529  6.2975303   6.2975396   6.75307767  7.25512337  7.25512337
  7.51877513  8.5325037   8.5325037   9.68776501 14.71033941 16.81940131]
nelec by numeric integration = 10.000000106448235
    CPU time for vxc     39.58 sec, wall time      0.31 sec
    CPU time for df-vj      8.06 sec, wall time      0.06 sec
E1 = -40.98509469219906  Ecoul = 20.707763364893456  Exc = -3.6881409862738153
cycle= 8 E= -15.6916918171104  delta_E= -2e-07  |g|= 9.9e-06  |ddm|= 0.00111
    CPU time for cycle= 8     67.10 sec, wall time      0.53 sec
  HOMO = -0.269824718420542  LUMO = -0.126235675606242
  mo_energy =
[-0.77775069 -0.4843625  -0.3308211  -0.3308211  -0.26982472 -0.12623568
 -0.12623568  0.04070488  0.10576588  0.19755615  0.19755615  0.19906203
  0.19906206  0.22183312  0.27073849  0.2857138   0.2857138   0.34212646
  0.34212646  0.49341223  0.5165104   0.51651043  0.67193713  0.72986519
  0.75410133  0.75410133  0.94270949  0.94270949  1.01428927  1.01428928
  1.03852242  1.03852242  1.06120451  1.12457981  1.12458005  1.22468334
  1.22483544  1.22483544  1.39588146  1.39588146  1.52360225  1.55961367
  1.55961367  1.72428659  1.80141759  1.80141761  1.85064316  1.85064316
  1.92756346  1.92756372  1.97634188  1.98560015  1.98560015  2.14656845
  2.40070737  2.40070737  2.71357684  2.86130208  2.8613082   2.87758075
  2.90261227  2.90261227  3.04459437  3.04459449  3.07885072  3.07885072
  3.20203621  3.20203621  3.275113    3.3414251   3.34142591  3.50648027
  3.50648027  3.73913156  3.73914139  3.74849183  4.25689361  4.25689361
  4.65571748  4.80262367  4.80263032  4.9260984   4.9260984   5.18268905
  5.18268905  5.35393466  5.35393484  5.41620019  5.41620019  5.44254257
  5.64169219  5.6479642   5.6479642   5.68108622  5.68108752  5.97472818
  5.97472818  6.29753255  6.29754185  6.75308067  7.25512606  7.25512606
  7.51877813  8.53250765  8.53250765  9.68776858 14.71034359 16.81940409]
nelec by numeric integration = 10.00000010644793
    CPU time for vxc     41.50 sec, wall time      0.33 sec
    CPU time for df-vj      7.97 sec, wall time      0.06 sec
E1 = -40.9850828419674  Ecoul = 20.70774853442272  Exc = -3.6881380060631677
cycle= 9 E= -15.6916918171388  delta_E= -2.84e-11  |g|= 2.54e-06  |ddm|= 3.23e-05
    CPU time for cycle= 9    100.25 sec, wall time      0.80 sec
  HOMO = -0.269825800015499  LUMO = -0.126236178137519
  mo_energy =
[-0.77775098 -0.48436254 -0.33082126 -0.33082126 -0.2698258  -0.12623618
 -0.12623618  0.0407049   0.10576591  0.19755592  0.19755592  0.19906218
  0.19906221  0.22183245  0.27073839  0.28571357  0.28571357  0.34212653
  0.34212653  0.49341217  0.51650999  0.51651002  0.67193682  0.72986504
  0.75410086  0.75410086  0.94270968  0.94270968  1.01428941  1.01428942
  1.03852247  1.03852247  1.06120456  1.12457997  1.12458021  1.22468317
  1.22483516  1.22483516  1.39588111  1.39588111  1.52360103  1.55961306
  1.55961306  1.72428602  1.80141698  1.80141699  1.85064308  1.85064308
  1.92756252  1.92756279  1.97634111  1.98559922  1.98559922  2.14656885
  2.40070699  2.40070699  2.7135767   2.86130236  2.86130848  2.87758059
  2.90261242  2.90261242  3.04459441  3.04459452  3.07885103  3.07885103
  3.20203627  3.20203627  3.27511292  3.34142536  3.34142617  3.50648058
  3.50648058  3.73913181  3.73914164  3.74849161  4.2568934   4.2568934
  4.65571687  4.80262264  4.80262929  4.92609742  4.92609742  5.18268764
  5.18268764  5.35393378  5.35393396  5.41619886  5.41619886  5.4425414
  5.64169099  5.64796308  5.64796308  5.6810848   5.6810861   5.9747268
  5.9747268   6.29753109  6.29754039  6.75307947  7.25512485  7.25512485
  7.51877713  8.5325079   8.5325079   9.68776849 14.71034379 16.81940236]
nelec by numeric integration = 10.000000106447798
    CPU time for vxc     39.07 sec, wall time      0.31 sec
    CPU time for df-vj      7.99 sec, wall time      0.06 sec
E1 = -40.98508892556634  Ecoul = 20.70775580382465  Exc = -3.6881391918385966
Extra cycle  E= -15.6916918171112  delta_E= 2.76e-11  |g|= 9.62e-06  |ddm|= 1.79e-05
    CPU time for scf_cycle   1069.45 sec, wall time      8.56 sec
    CPU time for SCF   1069.45 sec, wall time      8.56 sec
converged SCF energy = -15.6916918171112
