#INFO: **** input file is /home/nkousuke/lustre/toBeSync/turboRVB/05turbo-genius-development/turbogenius_paper/04data/sanity_checks/02pyscf_prep_LDA_via_trexio/00open_boundary/results/C2H6/pyscf-LDA-workflow/run.py ****

from pyscf_wrapper import Pyscf_wrapper

# input variables
pyscf_chkfile="pyscf.chk"
structure_file="C2H6.xyz"

# input variables
omp_num_threads=128
charge=0
spin=0
basis="ccecp-ccpvqz"
ecp="ccecp"
scf_method="DFT"
dft_xc="LDA_X,LDA_C_PZ"
solver_newton=False
MP2_flag=False
CCSD_flag=False
pyscf_output="out.pyscf"
twist_average=False
exp_to_discard=0.1
kpt=[0.0, 0.0, 0.0]
kpt_grid=[1, 1, 1]
smearing_method="fermi"
smearing_sigma=0.0

pyscf_calc=Pyscf_wrapper(
                        structure_file=structure_file,
                        chkfile=pyscf_chkfile,
                        )

pyscf_calc.run_pyscf(
                  omp_num_threads=omp_num_threads,
                  charge=charge,
                  spin=spin,
                  basis=basis,
                  ecp=ecp,
                  scf_method=scf_method,
                  dft_xc=dft_xc,
                  solver_newton=solver_newton,
                  MP2_flag=MP2_flag,
                  CCSD_flag=CCSD_flag,
                  pyscf_output=pyscf_output,
                  twist_average=twist_average,
                  exp_to_discard=exp_to_discard,
                  kpt=kpt,
                  kpt_grid=kpt_grid,
                  smearing_method=smearing_method,
                  smearing_sigma=smearing_sigma
                  )
                #INFO: ******************** input file end ********************


System: uname_result(system='Linux', node='spcc-106', release='5.4.0-66-generic', version='#74-Ubuntu SMP Wed Jan 27 22:54:38 UTC 2021', machine='x86_64', processor='x86_64')  Threads 128
Python 3.7.3 (default, Mar 27 2019, 22:11:17) 
[GCC 7.3.0]
numpy 1.20.1  scipy 1.7.3
Date: Thu Dec 22 06:21:50 2022
PySCF version 2.0.1
PySCF path  /home/nkousuke/application/anaconda3/lib/python3.7/site-packages/pyscf

[CONFIG] conf_file /home/nkousuke/.pyscf_conf.py
[INPUT] verbose = 5
[INPUT] max_memory = 506496.55859375 
[INPUT] num. atoms = 8
[INPUT] num. electrons = 14
[INPUT] charge = 0
[INPUT] spin (= nelec alpha-beta = 2S) = 0
[INPUT] symmetry False subgroup None
[INPUT] Mole.unit = A
[INPUT]  1 C      0.000000000000   0.000000000000   0.761300000000 AA    0.000000000000   0.000000000000   1.438648498631 Bohr
[INPUT]  2 C      0.000000000000   0.000000000000  -0.761300000000 AA    0.000000000000   0.000000000000  -1.438648498631 Bohr
[INPUT]  3 H      0.000000000000   1.015400000000   1.155150000000 AA    0.000000000000   1.918827906883   2.182917132791 Bohr
[INPUT]  4 H     -0.879360000000  -0.507700000000   1.155150000000 AA   -1.661749564898  -0.959413953442   2.182917132791 Bohr
[INPUT]  5 H      0.879360000000  -0.507700000000   1.155150000000 AA    1.661749564898  -0.959413953442   2.182917132791 Bohr
[INPUT]  6 H      0.000000000000  -1.015400000000  -1.155150000000 AA    0.000000000000  -1.918827906883  -2.182917132791 Bohr
[INPUT]  7 H     -0.879360000000   0.507700000000  -1.155150000000 AA   -1.661749564898   0.959413953442  -2.182917132791 Bohr
[INPUT]  8 H      0.879360000000   0.507700000000  -1.155150000000 AA    1.661749564898   0.959413953442  -2.182917132791 Bohr
[INPUT] ---------------- BASIS SET ---------------- 
[INPUT] l, kappa, [nprim/nctr], expnt,             c_1 c_2 ...
[INPUT] H
[INPUT] 0    0    [8    /1   ]  23.843185         0.0041149
                                10.212443         0.0104644
                                4.374164          0.0280111
                                1.873529          0.0758862
                                0.802465          0.1821062
                                0.343709          0.3485214
                                0.147217          0.3782313
                                0.063055          0.1164241
[INPUT] 0    0    [1    /1   ]  0.081856             1
[INPUT] 0    0    [1    /1   ]  0.233254             1
[INPUT] 0    0    [1    /1   ]  0.664673             1
[INPUT] 1    0    [1    /1   ]  0.284469             1
[INPUT] 1    0    [1    /1   ]  0.847159             1
[INPUT] 1    0    [1    /1   ]  2.522868             1
[INPUT] 2    0    [1    /1   ]  0.665279             1
[INPUT] 2    0    [1    /1   ]  2.048739             1
[INPUT] 3    0    [1    /1   ]  1.42146              1
[INPUT] C
[INPUT] 0    0    [9    /1   ]  13.073594         0.0051583
                                6.541187          0.0603424
                                4.573411          -0.1978471
                                1.637494          -0.081034
                                0.819297          0.2321726
                                0.409924          0.2914643
                                0.2313            0.4336405
                                0.102619          0.213194
                                0.051344          0.0049848
[INPUT] 0    0    [1    /1   ]  0.846879             1
[INPUT] 0    0    [1    /1   ]  0.269659             1
[INPUT] 0    0    [1    /1   ]  0.109576             1
[INPUT] 1    0    [9    /1   ]  9.934169          0.0209076
                                3.886955          0.0572698
                                1.871016          0.1122682
                                0.935757          0.2130082
                                0.468003          0.2835815
                                0.239473          0.3011207
                                0.117063          0.2016934
                                0.058547          0.0453575
                                0.029281          0.0029775
[INPUT] 1    0    [1    /1   ]  0.804681             1
[INPUT] 1    0    [1    /1   ]  0.313254             1
[INPUT] 1    0    [1    /1   ]  0.105389             1
[INPUT] 2    0    [1    /1   ]  2.01376              1
[INPUT] 2    0    [1    /1   ]  0.684884             1
[INPUT] 2    0    [1    /1   ]  0.240171             1
[INPUT] 3    0    [1    /1   ]  0.457302             1
[INPUT] 3    0    [1    /1   ]  1.32493              1
[INPUT] 4    0    [1    /1   ]  1.03418              1

nuclear repulsion = 26.6573409119688
number of shells = 88
number of NR pGTOs = 394
number of NR cGTOs = 288
basis = ccecp-ccpvqz
ecp = ccecp
CPU time:         5.77


******** <class 'pyscf.df.df_jk.density_fit.<locals>.DFHF'> ********
method = DFHF-RKS-RHF
initial guess = minao
damping factor = 0
level_shift factor = 0
DIIS = <class 'pyscf.scf.diis.CDIIS'>
diis_start_cycle = 1
diis_space = 8
SCF conv_tol = 1e-09
SCF conv_tol_grad = None
SCF max_cycles = 200
direct_scf = True
direct_scf_tol = 1e-13
chkfile to save SCF result = pyscf.chk
max_memory 506496 MB (current use 106 MB)
XC library pyscf.dft.libxc version 5.1.7
    S. Lehtola, C. Steigemann, M. J. Oliveira, and M. A. Marques, SoftwareX 7, 1 (2018)
XC functionals = LDA_X,LDA_C_PZ
    P. A. M. Dirac, Math. Proc. Cambridge Philos. Soc. 26, 376 (1930)
    F. Bloch, Z. Phys. 57, 545 (1929)
    J. P. Perdew and A. Zunger, Phys. Rev. B 23, 5048 (1981)
radial grids: 
    Treutler-Ahlrichs [JCP 102, 346 (1995); DOI:10.1063/1.469408] (M4) radial grids
    
becke partition: Becke, JCP 88, 2547 (1988); DOI:10.1063/1.454033
pruning grids: <function nwchem_prune at 0x14f01c188730>
grids dens level: 3
symmetrized grids: False
atomic radii adjust function: <function treutler_atomic_radii_adjust at 0x14f01c188620>
small_rho_cutoff = 1e-07
Set gradient conv threshold to 3.16228e-05
atom C rad-grids = 75, ang-grids = [ 50  50  50  50  50  50  50  50  50  50  50  50  50  50  50  50  50  50
  50  50  50  50  50  86  86  86  86  86  86  86  86  86  86 266 266 266
 266 266 266 266 302 302 302 302 302 302 302 302 302 302 302 302 302 302
 302 302 302 302 302 302 266 266 266 266 266 266 266 266 266 266 266 266
 266 266 266]
atom H rad-grids = 50, ang-grids = [ 50  50  50  50  50  50  50  50  50  50  50  50  50  50  86  86  86  86
 266 266 266 266 302 302 302 302 302 302 302 302 302 302 302 302 302 266
 266 266 266 266 266 266 266 266 266 266 266 266 266 266]
tot grids = 87948
Drop grids 10706
    CPU time for setting up grids     15.91 sec, wall time      0.18 sec
nelec by numeric integration = 13.999804666449378
    CPU time for vxc     43.98 sec, wall time      0.35 sec
Even tempered Gaussians are generated as DF auxbasis for  H C
  ETB auxbasis for H  [[0, [32.28416, 1]], [0, [16.14208, 1]], [0, [8.07104, 1]], [0, [4.03552, 1]], [0, [2.01776, 1]], [0, [1.00888, 1]], [0, [0.50444, 1]], [0, [0.25222, 1]], [0, [0.12611, 1]], [1, [8.571507550502421, 1]], [1, [4.2857537752512105, 1]], [1, [2.1428768876256052, 1]], [1, [1.0714384438128026, 1]], [1, [0.5357192219064013, 1]], [1, [0.26785961095320066, 1]], [2, [4.551504, 1]], [2, [2.275752, 1]], [2, [1.137876, 1]], [2, [0.568938, 1]]]
  ETB auxbasis for C  [[0, [13.144064, 1]], [0, [6.572032, 1]], [0, [3.286016, 1]], [0, [1.643008, 1]], [0, [0.821504, 1]], [0, [0.410752, 1]], [0, [0.205376, 1]], [0, [0.102688, 1]], [1, [19.852159834527225, 1]], [1, [9.926079917263612, 1]], [1, [4.963039958631806, 1]], [1, [2.481519979315903, 1]], [1, [1.2407599896579515, 1]], [1, [0.6203799948289758, 1]], [1, [0.3101899974144879, 1]], [1, [0.15509499870724394, 1]], [1, [0.07754749935362197, 1]], [2, [14.991872, 1]], [2, [7.495936, 1]], [2, [3.747968, 1]], [2, [1.873984, 1]], [2, [0.936992, 1]], [2, [0.468496, 1]], [2, [0.234248, 1]], [2, [0.117124, 1]], [2, [0.058562, 1]], [3, [5.36701994787573, 1]], [3, [2.683509973937865, 1]], [3, [1.3417549869689325, 1]], [3, [0.6708774934844662, 1]], [3, [0.3354387467422331, 1]], [3, [0.16771937337111656, 1]], [4, [3.842736, 1]], [4, [1.921368, 1]], [4, [0.960684, 1]], [4, [0.480342, 1]]]
num shells = 186, num cGTOs = 598
    CPU time for df-vj     24.58 sec, wall time      0.19 sec
E1 = -71.19786166999889  Ecoul = 35.54705800075294  Exc = -5.228838901516214
init E= -14.2223016587933
cond(S) = 103445.6002073276
    CPU time for initialize scf    347.44 sec, wall time      2.93 sec
  HOMO = -0.412245380926508  LUMO = -0.0307951142348407
  mo_energy =
[-8.30600083e-01 -6.83668986e-01 -5.08632014e-01 -5.08631684e-01
 -4.73469966e-01 -4.12246284e-01 -4.12245381e-01 -3.07951142e-02
  6.07051106e-03  2.25760930e-02  2.25761010e-02  4.73984045e-02
  4.74001598e-02  7.75682855e-02  1.20332008e-01  1.40218621e-01
  1.40219835e-01  1.41952590e-01  1.41958430e-01  2.61007929e-01
  2.65294879e-01  2.71342925e-01  2.71343003e-01  2.97012337e-01
  2.97016826e-01  3.05253923e-01  3.25100806e-01  3.25113745e-01
  4.13135481e-01  4.26844699e-01  5.30810656e-01  5.30837860e-01
  5.44664130e-01  6.23839061e-01  6.23852078e-01  6.29632446e-01
  6.36420591e-01  6.51356019e-01  6.51366266e-01  7.05280228e-01
  7.05305103e-01  7.26528337e-01  7.76565885e-01  7.95671264e-01
  8.13989196e-01  8.13996941e-01  8.85513147e-01  8.85513652e-01
  9.26562431e-01  9.26574870e-01  9.31047745e-01  9.31052823e-01
  9.48778720e-01  9.49550318e-01  1.00601402e+00  1.00602066e+00
  1.16022113e+00  1.16024135e+00  1.18167103e+00  1.22055770e+00
  1.27365971e+00  1.27368619e+00  1.41250845e+00  1.51956060e+00
  1.58021899e+00  1.58021947e+00  1.62876442e+00  1.62876587e+00
  1.62932562e+00  1.65393289e+00  1.68706903e+00  1.70170450e+00
  1.70172404e+00  1.76042585e+00  1.77326373e+00  1.77327038e+00
  1.86002738e+00  1.86006454e+00  1.86777878e+00  1.86778093e+00
  1.92042290e+00  1.94137416e+00  1.94137867e+00  1.94173144e+00
  1.95074906e+00  2.05519906e+00  2.05521101e+00  2.10728785e+00
  2.16330743e+00  2.16331159e+00  2.23333744e+00  2.23334108e+00
  2.27603968e+00  2.30630107e+00  2.31318827e+00  2.31320599e+00
  2.35234129e+00  2.35235192e+00  2.43439062e+00  2.43441119e+00
  2.45541104e+00  2.51577771e+00  2.51580648e+00  2.51951421e+00
  2.57245468e+00  2.57246174e+00  2.63767574e+00  2.72866559e+00
  2.77204584e+00  2.77207583e+00  2.81590508e+00  2.84045499e+00
  2.84046876e+00  2.84766205e+00  2.93943364e+00  2.97815092e+00
  2.98435082e+00  2.98953904e+00  2.98955059e+00  3.03381564e+00
  3.03382460e+00  3.06905401e+00  3.06905549e+00  3.18936094e+00
  3.25552860e+00  3.25558400e+00  3.26050504e+00  3.26051505e+00
  3.27627740e+00  3.29690012e+00  3.62396226e+00  3.62396344e+00
  3.62916421e+00  3.62919354e+00  3.71301455e+00  3.71317459e+00
  3.73460322e+00  3.74307014e+00  3.74307584e+00  3.79519175e+00
  3.79519721e+00  3.96810185e+00  4.92983800e+00  4.96850952e+00
  4.96851283e+00  4.98268577e+00  4.98269105e+00  5.02913620e+00
  5.02914049e+00  5.03522633e+00  5.09753952e+00  5.19354114e+00
  5.21996860e+00  5.33439680e+00  5.33439770e+00  5.39153896e+00
  5.51099680e+00  5.51100886e+00  5.52324543e+00  5.52324578e+00
  5.66467192e+00  5.66467968e+00  5.69869352e+00  5.71871515e+00
  5.73801321e+00  5.73802617e+00  5.77705973e+00  5.77706114e+00
  5.85186495e+00  5.85188554e+00  5.87201823e+00  5.87831718e+00
  5.97617604e+00  5.98265976e+00  5.98266830e+00  6.04198460e+00
  6.04198933e+00  6.07873469e+00  6.08526354e+00  6.10051426e+00
  6.16392500e+00  6.16394212e+00  6.21038922e+00  6.21039115e+00
  6.25566986e+00  6.26362322e+00  6.29498162e+00  6.29498191e+00
  6.44790041e+00  6.44790054e+00  6.56562406e+00  6.57349578e+00
  6.57349933e+00  6.70437144e+00  6.72948715e+00  6.72948844e+00
  6.80812521e+00  6.80812905e+00  6.92931355e+00  7.09778240e+00
  7.21768832e+00  7.23105026e+00  7.23105491e+00  7.28592869e+00
  7.30452574e+00  7.30453002e+00  7.37109050e+00  7.37110273e+00
  7.42782723e+00  7.43027514e+00  7.43028201e+00  7.45637194e+00
  7.48226593e+00  7.52076412e+00  7.54358139e+00  7.54358775e+00
  7.60179920e+00  7.60181689e+00  7.61830266e+00  7.61830283e+00
  7.67460294e+00  7.67462053e+00  7.70857040e+00  7.70858491e+00
  7.71955512e+00  7.75759633e+00  7.82594688e+00  7.89974752e+00
  7.89975361e+00  7.96602462e+00  8.09024861e+00  8.09026182e+00
  8.11816571e+00  8.11818206e+00  8.20610359e+00  8.21209288e+00
  8.21210396e+00  8.27134284e+00  8.29182195e+00  8.29183319e+00
  8.33511846e+00  8.34233504e+00  8.34235880e+00  8.35537505e+00
  8.45405400e+00  8.47791573e+00  8.47792813e+00  8.53406345e+00
  8.53406912e+00  8.80407015e+00  8.81577927e+00  8.84490274e+00
  8.84490355e+00  8.88691678e+00  8.96619994e+00  8.96620702e+00
  9.09377936e+00  9.14243109e+00  9.14243850e+00  9.21892038e+00
  9.21893688e+00  9.27344068e+00  9.80292350e+00  9.84822340e+00
  9.84823444e+00  9.93133126e+00  9.93133662e+00  9.97615841e+00
  1.00682442e+01  1.00682539e+01  1.01404243e+01  1.01404285e+01
  1.01656679e+01  1.01843713e+01  1.02400358e+01  1.02400362e+01
  1.02791464e+01  1.03246673e+01  1.03246697e+01  1.05349168e+01
  1.06759396e+01  1.07410448e+01  1.22645505e+01  1.22645573e+01
  1.22704698e+01  1.22704753e+01  2.00692513e+01  2.01598818e+01]
nelec by numeric integration = 14.000007058944972
    CPU time for vxc     48.78 sec, wall time      0.39 sec
    CPU time for df-vj     12.92 sec, wall time      0.10 sec
E1 = -74.97672235478075  Ecoul = 39.45245091040959  Exc = -5.822181997140137
cycle= 1 E= -14.6891125295425  delta_E= -0.467  |g|= 0.74  |ddm|= 5.89
    CPU time for cycle= 1    103.83 sec, wall time      0.86 sec
  HOMO = -0.155619972054223  LUMO = 0.0468604217736153
  mo_energy =
[-0.52586443 -0.42554205 -0.26806651 -0.26806612 -0.1912821  -0.19128151
 -0.15561997  0.04686042  0.07816848  0.10631949  0.10631989  0.13360099
  0.13360278  0.21069034  0.21069175  0.2119982   0.21418934  0.23895104
  0.23895572  0.36889537  0.39059362  0.39059396  0.41165033  0.43565555
  0.43566732  0.44782868  0.44782981  0.47817255  0.49406158  0.52320988
  0.61725306  0.62510451  0.62512568  0.70244349  0.72837416  0.72838154
  0.75687444  0.77739776  0.77740508  0.81342261  0.81344361  0.86256238
  0.86419881  0.90361982  0.90362357  0.92587133  1.0027468   1.00274794
  1.00690346  1.00691465  1.03818568  1.0381925   1.06198382  1.06962366
  1.14720065  1.14720934  1.27751127  1.27753663  1.31846084  1.33602398
  1.39663955  1.39666098  1.58873198  1.68344735  1.80585225  1.80585326
  1.82646509  1.82704524  1.82705665  1.84545642  1.86565851  1.8656865
  1.87035826  1.92874271  1.92874499  1.96461718  2.04498271  2.05736722
  2.05736963  2.06371318  2.06373819  2.10220663  2.10492461  2.10492685
  2.1222679   2.1752997   2.17531264  2.20761346  2.30839184  2.30839739
  2.3710423   2.37104735  2.41684522  2.41685957  2.41940234  2.4804187
  2.48305322  2.48305873  2.54478457  2.54480353  2.56408116  2.63247641
  2.63722867  2.63724887  2.70215472  2.70215769  2.83453697  2.85795577
  2.92676096  2.9398981   2.93992402  2.97183858  3.00938531  3.00939353
  3.09064482  3.12468403  3.1246897   3.12988171  3.13436874  3.17287028
  3.17287382  3.23692227  3.23692405  3.41166359  3.4117043   3.41461591
  3.43506794  3.44662114  3.44662673  3.50816871  3.81604857  3.81607264
  3.86361986  3.86379735  3.86379749  3.9325328   3.95459086  3.95459445
  3.96193866  3.99007191  3.99007558  4.16996805  5.22138032  5.27784894
  5.27785255  5.29868989  5.29869344  5.29969633  5.29970157  5.36078718
  5.37718789  5.50231054  5.57409961  5.58663051  5.58663168  5.68875255
  5.784006    5.78400919  5.80942134  5.80943081  5.93182367  5.93183209
  5.94073793  5.94074758  5.99513962  5.9951435   5.99860816  6.00468035
  6.01908458  6.03935724  6.07095152  6.07097158  6.17409184  6.17410464
  6.2090891   6.26422938  6.26423026  6.29062355  6.31202109  6.31210902
  6.37114136  6.37115316  6.44626739  6.44626746  6.49519265  6.5347279
  6.56068206  6.56068474  6.69963875  6.69964146  6.80016657  6.80896546
  6.80896625  6.89141034  7.01492092  7.01492197  7.11824854  7.11825366
  7.19043274  7.34057747  7.4131288   7.4131318   7.42501318  7.45711051
  7.47497261  7.47497613  7.5461147   7.54613172  7.57842379  7.60976722
  7.60977641  7.61352334  7.69838375  7.69839265  7.72116946  7.75402935
  7.77243617  7.77243657  7.80708125  7.80709383  7.81452542  7.8145398
  7.8655538   7.88659091  7.92407522  7.9240874   7.96564864  8.06146957
  8.06147244  8.18727488  8.23376669  8.2337837   8.28454773  8.28456346
  8.38810024  8.41768408  8.43047208  8.43048228  8.45568025  8.47805749
  8.47807671  8.50558759  8.57388789  8.57389975  8.6592237   8.65923105
  8.67834205  8.7872306   8.78723942  8.95992368  9.0149791   9.01497917
  9.0219468   9.1299707   9.2085744   9.20857943  9.32736211  9.32736753
  9.42456121  9.42457384  9.44220556  9.47282129 10.00955042 10.06498749
 10.06499906 10.13706401 10.13706476 10.20588273 10.29662321 10.296633
 10.37502571 10.37502764 10.39391793 10.44345492 10.49328766 10.49328987
 10.50654259 10.56148674 10.56148759 10.78184906 10.92836346 11.00262958
 12.53850118 12.53850938 12.54658655 12.54659333 20.56928219 20.66282456]
nelec by numeric integration = 14.00000084168125
    CPU time for vxc     34.82 sec, wall time      0.28 sec
    CPU time for df-vj     10.57 sec, wall time      0.09 sec
E1 = -70.04091796504414  Ecoul = 34.01510074261048  Exc = -5.101069384152231
cycle= 2 E= -14.4695456946171  delta_E= 0.22  |g|= 1.12  |ddm|= 3.06
    CPU time for cycle= 2     98.81 sec, wall time      0.79 sec
  HOMO = -0.301673973445522  LUMO = 0.00547035273797628
  mo_energy =
[-6.96135305e-01 -5.57384204e-01 -3.95097577e-01 -3.95097175e-01
 -3.34898526e-01 -3.01674784e-01 -3.01673973e-01  5.47035274e-03
  4.33203949e-02  6.18426370e-02  6.18428234e-02  8.85501538e-02
  8.85501723e-02  1.58191685e-01  1.60424698e-01  1.72926396e-01
  1.72927734e-01  1.89162650e-01  1.89167822e-01  3.08509308e-01
  3.16405459e-01  3.16405657e-01  3.42686061e-01  3.59658703e-01
  3.59660902e-01  3.60877298e-01  3.77527645e-01  3.77539781e-01
  4.44819059e-01  4.71518485e-01  5.74657576e-01  5.74681634e-01
  5.77342764e-01  6.67429447e-01  6.69235010e-01  6.69245705e-01
  6.88336072e-01  7.07192898e-01  7.07201193e-01  7.54152458e-01
  7.54173947e-01  8.03265901e-01  8.17245311e-01  8.31135293e-01
  8.57210933e-01  8.57216739e-01  9.40275319e-01  9.40280691e-01
  9.62796118e-01  9.62798870e-01  9.70460311e-01  9.70462751e-01
  9.99836413e-01  1.00475195e+00  1.06906464e+00  1.06907239e+00
  1.21219404e+00  1.21221509e+00  1.24448309e+00  1.27592015e+00
  1.32927899e+00  1.32930109e+00  1.48086291e+00  1.58529074e+00
  1.67367126e+00  1.67367262e+00  1.71225097e+00  1.71225230e+00
  1.73661638e+00  1.73819162e+00  1.74981627e+00  1.77233014e+00
  1.77234848e+00  1.84636393e+00  1.84776262e+00  1.84776671e+00
  1.95094044e+00  1.95096982e+00  1.95136320e+00  1.95136594e+00
  1.99437333e+00  1.99853624e+00  2.01310424e+00  2.01310711e+00
  2.02799311e+00  2.11050846e+00  2.11051930e+00  2.15588988e+00
  2.22677760e+00  2.22678220e+00  2.29744244e+00  2.29744610e+00
  2.34319625e+00  2.36105686e+00  2.36107258e+00  2.38901759e+00
  2.41185037e+00  2.41185825e+00  2.48684408e+00  2.48686344e+00
  2.50752175e+00  2.57190041e+00  2.57192487e+00  2.57641862e+00
  2.63322323e+00  2.63322659e+00  2.72931722e+00  2.77685120e+00
  2.84562068e+00  2.84564707e+00  2.86803540e+00  2.90539345e+00
  2.91749699e+00  2.91750777e+00  3.00632619e+00  3.04332504e+00
  3.05093294e+00  3.05094048e+00  3.05257217e+00  3.09832428e+00
  3.09833033e+00  3.14239961e+00  3.14240082e+00  3.28360216e+00
  3.32585361e+00  3.32589800e+00  3.34464434e+00  3.34465163e+00
  3.35192678e+00  3.39463734e+00  3.71252945e+00  3.71255416e+00
  3.72802140e+00  3.72802279e+00  3.77987642e+00  3.81996408e+00
  3.82256596e+00  3.83417304e+00  3.83417808e+00  3.88097298e+00
  3.88097747e+00  4.05471048e+00  5.05199487e+00  5.09476472e+00
  5.09476825e+00  5.11634828e+00  5.11635228e+00  5.15059292e+00
  5.15059756e+00  5.17349682e+00  5.21803380e+00  5.32712820e+00
  5.37328346e+00  5.44755221e+00  5.44755268e+00  5.51478433e+00
  5.64399299e+00  5.64399438e+00  5.64509676e+00  5.64510738e+00
  5.78127487e+00  5.78128317e+00  5.82630002e+00  5.83549558e+00
  5.83550616e+00  5.85573893e+00  5.87880166e+00  5.87880368e+00
  5.93682067e+00  5.95274579e+00  5.95276622e+00  5.96256836e+00
  6.06877100e+00  6.06877979e+00  6.07611285e+00  6.14044473e+00
  6.14044756e+00  6.18827008e+00  6.19073206e+00  6.19197748e+00
  6.25647816e+00  6.25649385e+00  6.31415420e+00  6.31415569e+00
  6.36229150e+00  6.37992885e+00  6.40917123e+00  6.40917286e+00
  6.55749402e+00  6.55749536e+00  6.67200676e+00  6.67889559e+00
  6.67889751e+00  6.78677287e+00  6.85552197e+00  6.85552208e+00
  6.94388946e+00  6.94389384e+00  7.04641022e+00  7.21380109e+00
  7.30784912e+00  7.32021847e+00  7.32022233e+00  7.36813489e+00
  7.38717441e+00  7.38717835e+00  7.46057331e+00  7.46058803e+00
  7.51670028e+00  7.51670818e+00  7.51816563e+00  7.52117808e+00
  7.58864951e+00  7.61758571e+00  7.61759218e+00  7.62336650e+00
  7.69341731e+00  7.69341871e+00  7.70111078e+00  7.70112633e+00
  7.73930987e+00  7.73932744e+00  7.79362075e+00  7.79754744e+00
  7.79756098e+00  7.82358160e+00  7.89565297e+00  7.97774993e+00
  7.97775550e+00  8.06621456e+00  8.16409070e+00  8.16410546e+00
  8.19951986e+00  8.19953576e+00  8.29722846e+00  8.31512231e+00
  8.31513295e+00  8.34490104e+00  8.39727496e+00  8.41188613e+00
  8.41190679e+00  8.41710691e+00  8.41711748e+00  8.42824923e+00
  8.55182965e+00  8.56350010e+00  8.56350953e+00  8.64792017e+00
  8.64792719e+00  8.88318371e+00  8.91006299e+00  8.92886814e+00
  8.92886831e+00  9.00696841e+00  9.07361364e+00  9.07362010e+00
  9.23175693e+00  9.23176317e+00  9.24664422e+00  9.31463932e+00
  9.31465341e+00  9.35914943e+00  9.90110734e+00  9.95077863e+00
  9.95078942e+00  1.00298179e+01  1.00298213e+01  1.00809917e+01
  1.01735070e+01  1.01735172e+01  1.02506627e+01  1.02506668e+01
  1.02763403e+01  1.03029674e+01  1.03569689e+01  1.03569702e+01
  1.03903540e+01  1.04347623e+01  1.04347640e+01  1.06491389e+01
  1.07912236e+01  1.08599191e+01  1.23917579e+01  1.23917657e+01
  1.23984486e+01  1.23984549e+01  2.02814804e+01  2.03727297e+01]
nelec by numeric integration = 14.000005587065656
    CPU time for vxc     39.93 sec, wall time      0.32 sec
    CPU time for df-vj      9.38 sec, wall time      0.07 sec
E1 = -73.27074689205438  Ecoul = 37.30059503509814  Exc = -5.521204687658642
cycle= 3 E= -14.834015632646  delta_E= -0.364  |g|= 0.0369  |ddm|= 1.84
    CPU time for cycle= 3    130.62 sec, wall time      1.03 sec
  HOMO = -0.299313743018048  LUMO = 0.00621062286376803
  mo_energy =
[-6.89995019e-01 -5.56975230e-01 -3.90992511e-01 -3.90992074e-01
 -3.30510619e-01 -2.99314600e-01 -2.99313743e-01  6.21062286e-03
  4.30533342e-02  6.29313565e-02  6.29315291e-02  9.00887676e-02
  9.00889451e-02  1.58849636e-01  1.61587801e-01  1.74007959e-01
  1.74009283e-01  1.91920115e-01  1.91925295e-01  3.09045554e-01
  3.18466733e-01  3.18466976e-01  3.45105966e-01  3.60771487e-01
  3.61468133e-01  3.61470387e-01  3.79640270e-01  3.79652526e-01
  4.47658129e-01  4.73573403e-01  5.76863332e-01  5.76887349e-01
  5.79586285e-01  6.68939462e-01  6.71721154e-01  6.71731811e-01
  6.89281840e-01  7.09829979e-01  7.09838327e-01  7.55480899e-01
  7.55502624e-01  8.04748651e-01  8.18047843e-01  8.31934815e-01
  8.58557809e-01  8.58563521e-01  9.41994231e-01  9.42000006e-01
  9.64283441e-01  9.64286132e-01  9.72556746e-01  9.72558747e-01
  1.00010382e+00  1.00467293e+00  1.07076658e+00  1.07077443e+00
  1.21476965e+00  1.21479151e+00  1.24837296e+00  1.27850905e+00
  1.33214516e+00  1.33216762e+00  1.48593996e+00  1.59204177e+00
  1.67769010e+00  1.67769143e+00  1.71755025e+00  1.71755318e+00
  1.73881250e+00  1.73992338e+00  1.75390952e+00  1.77551760e+00
  1.77553728e+00  1.84975377e+00  1.84975783e+00  1.85067833e+00
  1.95316998e+00  1.95319970e+00  1.95476922e+00  1.95477200e+00
  1.99597643e+00  2.00263344e+00  2.01661827e+00  2.01662118e+00
  2.02994958e+00  2.11324938e+00  2.11326051e+00  2.15778204e+00
  2.22995559e+00  2.22996021e+00  2.30015209e+00  2.30015577e+00
  2.34490485e+00  2.36419406e+00  2.36421009e+00  2.38987588e+00
  2.41425758e+00  2.41426555e+00  2.48869636e+00  2.48871589e+00
  2.50855486e+00  2.57446938e+00  2.57449391e+00  2.57734395e+00
  2.63605175e+00  2.63605508e+00  2.73368249e+00  2.78003832e+00
  2.84877880e+00  2.84880547e+00  2.87005770e+00  2.90732346e+00
  2.91959472e+00  2.91960561e+00  3.01037501e+00  3.04666697e+00
  3.05379663e+00  3.05380419e+00  3.05490353e+00  3.10127394e+00
  3.10127994e+00  3.14506153e+00  3.14506283e+00  3.28844149e+00
  3.32730582e+00  3.32735079e+00  3.34795166e+00  3.34795905e+00
  3.35432737e+00  3.39617937e+00  3.71583293e+00  3.71585791e+00
  3.73126229e+00  3.73126366e+00  3.78467435e+00  3.82301052e+00
  3.82301893e+00  3.83756907e+00  3.83757407e+00  3.88374900e+00
  3.88375343e+00  4.05900206e+00  5.05814286e+00  5.10210202e+00
  5.10210542e+00  5.12125584e+00  5.12125996e+00  5.15274493e+00
  5.15274949e+00  5.17737054e+00  5.22278139e+00  5.32991029e+00
  5.37534266e+00  5.45089865e+00  5.45089924e+00  5.52164578e+00
  5.64586412e+00  5.64587492e+00  5.64639763e+00  5.64639910e+00
  5.78487080e+00  5.78487911e+00  5.83116870e+00  5.83860859e+00
  5.83861933e+00  5.85637111e+00  5.88095184e+00  5.88095385e+00
  5.93966047e+00  5.95615638e+00  5.95617696e+00  5.96465157e+00
  6.07233167e+00  6.07234073e+00  6.07912498e+00  6.14472109e+00
  6.14472399e+00  6.18992489e+00  6.19355607e+00  6.19402980e+00
  6.25958000e+00  6.25959573e+00  6.31632331e+00  6.31632480e+00
  6.36441671e+00  6.38371560e+00  6.41301739e+00  6.41301885e+00
  6.56256598e+00  6.56256721e+00  6.67568810e+00  6.68251988e+00
  6.68252189e+00  6.79172990e+00  6.85858746e+00  6.85858757e+00
  6.94597752e+00  6.94598183e+00  7.04877595e+00  7.21468271e+00
  7.31340505e+00  7.32238892e+00  7.32239283e+00  7.37089748e+00
  7.38958422e+00  7.38958813e+00  7.46332170e+00  7.46333631e+00
  7.51906516e+00  7.51907311e+00  7.52050471e+00  7.52369049e+00
  7.59221655e+00  7.62092198e+00  7.62092866e+00  7.62503850e+00
  7.69658741e+00  7.69658878e+00  7.70305534e+00  7.70307086e+00
  7.74161318e+00  7.74163076e+00  7.79634566e+00  7.80032845e+00
  7.80034197e+00  7.82652368e+00  7.89835263e+00  7.97981425e+00
  7.97981983e+00  8.06935244e+00  8.16623249e+00  8.16624722e+00
  8.20241740e+00  8.20243354e+00  8.30001642e+00  8.31733933e+00
  8.31734994e+00  8.34841685e+00  8.39974574e+00  8.41518882e+00
  8.41520975e+00  8.41942725e+00  8.41943777e+00  8.43115369e+00
  8.55424295e+00  8.56595465e+00  8.56596405e+00  8.65056193e+00
  8.65056901e+00  8.88602416e+00  8.91363724e+00  8.93233784e+00
  8.93233804e+00  9.00947290e+00  9.07699278e+00  9.07699920e+00
  9.23562775e+00  9.23563397e+00  9.24923194e+00  9.31843702e+00
  9.31845112e+00  9.36249851e+00  9.90351814e+00  9.95346323e+00
  9.95347402e+00  1.00324085e+01  1.00324119e+01  1.00843951e+01
  1.01765256e+01  1.01765358e+01  1.02531492e+01  1.02531533e+01
  1.02786975e+01  1.03054459e+01  1.03593910e+01  1.03593921e+01
  1.03927829e+01  1.04369063e+01  1.04369080e+01  1.06514483e+01
  1.07939508e+01  1.08620194e+01  1.23928648e+01  1.23928723e+01
  1.23995915e+01  1.23995976e+01  2.02776910e+01  2.03692372e+01]
nelec by numeric integration = 14.000005487712482
    CPU time for vxc     40.33 sec, wall time      0.32 sec
    CPU time for df-vj     11.81 sec, wall time      0.09 sec
E1 = -73.24809268584016  Ecoul = 37.27735090100361  Exc = -5.520956470253138
cycle= 4 E= -14.8343573431209  delta_E= -0.000342  |g|= 0.00754  |ddm|= 0.0627
    CPU time for cycle= 4    112.68 sec, wall time      0.98 sec
  HOMO = -0.298528047559295  LUMO = 0.00626853097284133
  mo_energy =
[-6.89613303e-01 -5.55651839e-01 -3.90435885e-01 -3.90435453e-01
 -3.29916611e-01 -2.98528891e-01 -2.98528048e-01  6.26853097e-03
  4.31151515e-02  6.27764132e-02  6.27765846e-02  9.00417281e-02
  9.00419222e-02  1.59425670e-01  1.61813423e-01  1.74068520e-01
  1.74069849e-01  1.92184675e-01  1.92189865e-01  3.09362163e-01
  3.18439760e-01  3.18440031e-01  3.45096258e-01  3.61271482e-01
  3.61605418e-01  3.61607655e-01  3.80108335e-01  3.80120615e-01
  4.47697145e-01  4.73802296e-01  5.77071922e-01  5.77095987e-01
  5.79641349e-01  6.69002743e-01  6.71898049e-01  6.71908731e-01
  6.89988072e-01  7.10072728e-01  7.10081121e-01  7.55910737e-01
  7.55932479e-01  8.05156515e-01  8.18417989e-01  8.32146204e-01
  8.58775300e-01  8.58781002e-01  9.41960884e-01  9.41966729e-01
  9.64282631e-01  9.64285296e-01  9.72729022e-01  9.72730948e-01
  1.00030571e+00  1.00505022e+00  1.07096550e+00  1.07097336e+00
  1.21509226e+00  1.21511412e+00  1.24867732e+00  1.27904197e+00
  1.33265462e+00  1.33267711e+00  1.48609485e+00  1.59227768e+00
  1.67788579e+00  1.67788711e+00  1.71790341e+00  1.71790616e+00
  1.73967231e+00  1.74074414e+00  1.75438671e+00  1.77601900e+00
  1.77603852e+00  1.85080797e+00  1.85081207e+00  1.85124170e+00
  1.95390145e+00  1.95393121e+00  1.95519041e+00  1.95519318e+00
  1.99673246e+00  2.00336328e+00  2.01700541e+00  2.01700832e+00
  2.03062049e+00  2.11381424e+00  2.11382532e+00  2.15841493e+00
  2.23033524e+00  2.23033988e+00  2.30055146e+00  2.30055516e+00
  2.34528867e+00  2.36447016e+00  2.36448620e+00  2.39054959e+00
  2.41466436e+00  2.41467231e+00  2.48930396e+00  2.48932357e+00
  2.50914629e+00  2.57490082e+00  2.57492540e+00  2.57821654e+00
  2.63661087e+00  2.63661419e+00  2.73378160e+00  2.78038417e+00
  2.84937600e+00  2.84940272e+00  2.87042572e+00  2.90789102e+00
  2.92044073e+00  2.92045165e+00  3.01087698e+00  3.04705033e+00
  3.05424509e+00  3.05425261e+00  3.05551229e+00  3.10186319e+00
  3.10186920e+00  3.14529789e+00  3.14529917e+00  3.28885632e+00
  3.32781379e+00  3.32785876e+00  3.34846797e+00  3.34847536e+00
  3.35511757e+00  3.39692613e+00  3.71660099e+00  3.71662600e+00
  3.73167617e+00  3.73167755e+00  3.78521746e+00  3.82328201e+00
  3.82384146e+00  3.83791570e+00  3.83792072e+00  3.88418527e+00
  3.88418972e+00  4.05945103e+00  5.05832357e+00  5.10221603e+00
  5.10221944e+00  5.12167221e+00  5.12167639e+00  5.15382245e+00
  5.15382706e+00  5.17778208e+00  5.22309540e+00  5.33040832e+00
  5.37597475e+00  5.45172028e+00  5.45172083e+00  5.52178042e+00
  5.64692330e+00  5.64693418e+00  5.64731785e+00  5.64731928e+00
  5.78558040e+00  5.78558873e+00  5.83138604e+00  5.83919748e+00
  5.83920821e+00  5.85769305e+00  5.88161635e+00  5.88161840e+00
  5.94067474e+00  5.95691562e+00  5.95693618e+00  5.96584957e+00
  6.07316862e+00  6.07317767e+00  6.08001642e+00  6.14526714e+00
  6.14527005e+00  6.19110013e+00  6.19457854e+00  6.19487207e+00
  6.26035962e+00  6.26037538e+00  6.31705515e+00  6.31705667e+00
  6.36508801e+00  6.38441377e+00  6.41344505e+00  6.41344648e+00
  6.56318501e+00  6.56318621e+00  6.67646370e+00  6.68311961e+00
  6.68312165e+00  6.79230287e+00  6.85897308e+00  6.85897319e+00
  6.94626405e+00  6.94626844e+00  7.04955978e+00  7.21580794e+00
  7.31383732e+00  7.32329355e+00  7.32329745e+00  7.37147651e+00
  7.39037917e+00  7.39038307e+00  7.46407810e+00  7.46409269e+00
  7.51986155e+00  7.51986953e+00  7.52120209e+00  7.52444530e+00
  7.59298925e+00  7.62151529e+00  7.62152199e+00  7.62588845e+00
  7.69712404e+00  7.69712543e+00  7.70369863e+00  7.70371422e+00
  7.74229119e+00  7.74230876e+00  7.79708748e+00  7.80093324e+00
  7.80094669e+00  7.82729082e+00  7.89899070e+00  7.98044980e+00
  7.98045536e+00  8.07009493e+00  8.16699850e+00  8.16701333e+00
  8.20339390e+00  8.20341004e+00  8.30077263e+00  8.31831049e+00
  8.31832114e+00  8.34926814e+00  8.40055467e+00  8.41596190e+00
  8.41598286e+00  8.42004315e+00  8.42005368e+00  8.43183803e+00
  8.55494536e+00  8.56687025e+00  8.56687952e+00  8.65155015e+00
  8.65155722e+00  8.88697510e+00  8.91430689e+00  8.93323663e+00
  8.93323684e+00  9.01029594e+00  9.07770173e+00  9.07770816e+00
  9.23641463e+00  9.23642090e+00  9.24965948e+00  9.31932918e+00
  9.31934333e+00  9.36353176e+00  9.90441345e+00  9.95421673e+00
  9.95422759e+00  1.00332776e+01  1.00332809e+01  1.00850589e+01
  1.01773416e+01  1.01773518e+01  1.02540188e+01  1.02540228e+01
  1.02795850e+01  1.03061588e+01  1.03602323e+01  1.03602334e+01
  1.03937782e+01  1.04378666e+01  1.04378683e+01  1.06522143e+01
  1.07945590e+01  1.08625858e+01  1.23935304e+01  1.23935379e+01
  1.24002544e+01  1.24002605e+01  2.02773647e+01  2.03688640e+01]
nelec by numeric integration = 14.000005450846954
    CPU time for vxc     40.96 sec, wall time      0.33 sec
    CPU time for df-vj      9.23 sec, wall time      0.08 sec
E1 = -73.246548980018  Ecoul = 37.274663347415945  Exc = -5.519828513730092
cycle= 5 E= -14.8343732343633  delta_E= -1.59e-05  |g|= 0.000504  |ddm|= 0.0126
    CPU time for cycle= 5    123.50 sec, wall time      0.99 sec
  HOMO = -0.298836557125223  LUMO = 0.00605763558749654
  mo_energy =
[-6.89876680e-01 -5.55974760e-01 -3.90724777e-01 -3.90724346e-01
 -3.30159223e-01 -2.98837399e-01 -2.98836557e-01  6.05763559e-03
  4.29060266e-02  6.25692843e-02  6.25694560e-02  8.98284989e-02
  8.98286976e-02  1.59191625e-01  1.61611108e-01  1.73850766e-01
  1.73852092e-01  1.91945421e-01  1.91950613e-01  3.09154143e-01
  3.18243632e-01  3.18243905e-01  3.44889060e-01  3.61056476e-01
  3.61383914e-01  3.61386154e-01  3.79861112e-01  3.79873397e-01
  4.47487532e-01  4.73566948e-01  5.76835025e-01  5.76859088e-01
  5.79404508e-01  6.68760534e-01  6.71659540e-01  6.71670225e-01
  6.89767234e-01  7.09835621e-01  7.09844022e-01  7.55683120e-01
  7.55704853e-01  8.04952931e-01  8.18188762e-01  8.31912216e-01
  8.58538329e-01  8.58544027e-01  9.41714568e-01  9.41720415e-01
  9.64046892e-01  9.64049554e-01  9.72480709e-01  9.72482640e-01
  1.00005295e+00  1.00479030e+00  1.07070355e+00  1.07071141e+00
  1.21483869e+00  1.21486055e+00  1.24843833e+00  1.27878198e+00
  1.33240687e+00  1.33242938e+00  1.48586390e+00  1.59202961e+00
  1.67764005e+00  1.67764137e+00  1.71765247e+00  1.71765524e+00
  1.73940904e+00  1.74049478e+00  1.75411889e+00  1.77576223e+00
  1.77578176e+00  1.85053548e+00  1.85053958e+00  1.85101409e+00
  1.95363664e+00  1.95366640e+00  1.95492646e+00  1.95492923e+00
  1.99646907e+00  2.00311430e+00  2.01675093e+00  2.01675383e+00
  2.03036460e+00  2.11356015e+00  2.11357123e+00  2.15815965e+00
  2.23008347e+00  2.23008811e+00  2.30029001e+00  2.30029371e+00
  2.34503000e+00  2.36421709e+00  2.36423314e+00  2.39028248e+00
  2.41439974e+00  2.41440769e+00  2.48904613e+00  2.48906575e+00
  2.50888488e+00  2.57464514e+00  2.57466972e+00  2.57795107e+00
  2.63635188e+00  2.63635521e+00  2.73355547e+00  2.78013222e+00
  2.84911548e+00  2.84914219e+00  2.87015888e+00  2.90763355e+00
  2.92017283e+00  2.92018375e+00  3.01060230e+00  3.04679950e+00
  3.05397931e+00  3.05398683e+00  3.05523253e+00  3.10158224e+00
  3.10158825e+00  3.14503371e+00  3.14503501e+00  3.28861067e+00
  3.32754769e+00  3.32759268e+00  3.34818035e+00  3.34818775e+00
  3.35481979e+00  3.39664503e+00  3.71633400e+00  3.71635902e+00
  3.73140332e+00  3.73140469e+00  3.78494869e+00  3.82301478e+00
  3.82356719e+00  3.83764429e+00  3.83764934e+00  3.88391387e+00
  3.88391834e+00  4.05918154e+00  5.05805005e+00  5.10197585e+00
  5.10197926e+00  5.12140845e+00  5.12141263e+00  5.15351020e+00
  5.15351479e+00  5.17752673e+00  5.22280936e+00  5.33014523e+00
  5.37573076e+00  5.45142657e+00  5.45142714e+00  5.52152379e+00
  5.64662986e+00  5.64664078e+00  5.64702802e+00  5.64702946e+00
  5.78530140e+00  5.78530974e+00  5.83112032e+00  5.83891149e+00
  5.83892222e+00  5.85739167e+00  5.88132440e+00  5.88132644e+00
  5.94039453e+00  5.95663067e+00  5.95665124e+00  5.96555673e+00
  6.07287556e+00  6.07288462e+00  6.07970595e+00  6.14499574e+00
  6.14499864e+00  6.19077588e+00  6.19428417e+00  6.19456288e+00
  6.26006940e+00  6.26008517e+00  6.31677405e+00  6.31677560e+00
  6.36481669e+00  6.38413588e+00  6.41317645e+00  6.41317786e+00
  6.56289477e+00  6.56289596e+00  6.67616343e+00  6.68283030e+00
  6.68283234e+00  6.79202012e+00  6.85869606e+00  6.85869619e+00
  6.94600392e+00  6.94600836e+00  7.04928862e+00  7.21550281e+00
  7.31355639e+00  7.32298562e+00  7.32298953e+00  7.37118276e+00
  7.39008491e+00  7.39008881e+00  7.46378180e+00  7.46379638e+00
  7.51955530e+00  7.51956329e+00  7.52091233e+00  7.52414741e+00
  7.59268552e+00  7.62123467e+00  7.62124140e+00  7.62559588e+00
  7.69683913e+00  7.69684050e+00  7.70341999e+00  7.70343559e+00
  7.74200422e+00  7.74202179e+00  7.79678716e+00  7.80064700e+00
  7.80066044e+00  7.82699491e+00  7.89870283e+00  7.98016141e+00
  7.98016697e+00  8.06979731e+00  8.16670457e+00  8.16671939e+00
  8.20308432e+00  8.20310047e+00  8.30048407e+00  8.31798825e+00
  8.31799891e+00  8.34895917e+00  8.40026375e+00  8.41566005e+00
  8.41568102e+00  8.41974307e+00  8.41975362e+00  8.43154976e+00
  8.55466619e+00  8.56656258e+00  8.56657184e+00  8.65125298e+00
  8.65126005e+00  8.88665080e+00  8.91398951e+00  8.93290682e+00
  8.93290702e+00  9.00999431e+00  9.07739330e+00  9.07739973e+00
  9.23609087e+00  9.23609715e+00  9.24942209e+00  9.31900894e+00
  9.31902310e+00  9.36319239e+00  9.90409458e+00  9.95390019e+00
  9.95391104e+00  1.00329614e+01  1.00329647e+01  1.00847495e+01
  1.01770213e+01  1.01770315e+01  1.02536835e+01  1.02536875e+01
  1.02792402e+01  1.03058389e+01  1.03599168e+01  1.03599180e+01
  1.03934256e+01  1.04375518e+01  1.04375536e+01  1.06518925e+01
  1.07942413e+01  1.08622843e+01  1.23932079e+01  1.23932155e+01
  1.23999320e+01  1.23999381e+01  2.02771732e+01  2.03686775e+01]
nelec by numeric integration = 14.000005453633735
    CPU time for vxc     48.59 sec, wall time      0.39 sec
    CPU time for df-vj      7.90 sec, wall time      0.06 sec
E1 = -73.24696830849408  Ecoul = 37.2752505716999  Exc = -5.519996474859477
cycle= 6 E= -14.8343732996848  delta_E= -6.53e-08  |g|= 8.31e-05  |ddm|= 0.00133
    CPU time for cycle= 6    117.41 sec, wall time      1.05 sec
  HOMO = -0.298823298244833  LUMO = 0.00606131721712359
  mo_energy =
[-6.89869744e-01 -5.55963332e-01 -3.90713041e-01 -3.90712610e-01
 -3.30157617e-01 -2.98824141e-01 -2.98823298e-01  6.06131722e-03
  4.29070747e-02  6.25713026e-02  6.25714746e-02  8.98323924e-02
  8.98325916e-02  1.59194985e-01  1.61613106e-01  1.73855052e-01
  1.73856378e-01  1.91954129e-01  1.91959321e-01  3.09158986e-01
  3.18247628e-01  3.18247900e-01  3.44892107e-01  3.61058552e-01
  3.61389687e-01  3.61391928e-01  3.79867832e-01  3.79880116e-01
  4.47495201e-01  4.73573613e-01  5.76840381e-01  5.76864444e-01
  5.79410901e-01  6.68766145e-01  6.71665810e-01  6.71676494e-01
  6.89770689e-01  7.09843076e-01  7.09851476e-01  7.55688186e-01
  7.55709917e-01  8.04954109e-01  8.18193465e-01  8.31915961e-01
  8.58542015e-01  8.58547713e-01  9.41718180e-01  9.41724028e-01
  9.64051133e-01  9.64053795e-01  9.72485617e-01  9.72487547e-01
  1.00005620e+00  1.00479474e+00  1.07071069e+00  1.07071855e+00
  1.21484508e+00  1.21486694e+00  1.24844735e+00  1.27879379e+00
  1.33241563e+00  1.33243813e+00  1.48586920e+00  1.59204020e+00
  1.67764502e+00  1.67764634e+00  1.71765938e+00  1.71766215e+00
  1.73941350e+00  1.74049981e+00  1.75413088e+00  1.77577042e+00
  1.77578995e+00  1.85054512e+00  1.85054921e+00  1.85101916e+00
  1.95364465e+00  1.95367440e+00  1.95493523e+00  1.95493800e+00
  1.99647926e+00  2.00312308e+00  2.01675916e+00  2.01676206e+00
  2.03037229e+00  2.11356892e+00  2.11358001e+00  2.15816830e+00
  2.23009258e+00  2.23009722e+00  2.30029996e+00  2.30030366e+00
  2.34503710e+00  2.36422764e+00  2.36424369e+00  2.39028868e+00
  2.41440834e+00  2.41441629e+00  2.48905451e+00  2.48907413e+00
  2.50889261e+00  2.57465365e+00  2.57467823e+00  2.57795888e+00
  2.63636135e+00  2.63636468e+00  2.73355940e+00  2.78014158e+00
  2.84912177e+00  2.84914849e+00  2.87016761e+00  2.90764045e+00
  2.92018155e+00  2.92019247e+00  3.01061269e+00  3.04680760e+00
  3.05398728e+00  3.05399480e+00  3.05524335e+00  3.10159294e+00
  3.10159895e+00  3.14504049e+00  3.14504179e+00  3.28861618e+00
  3.32755411e+00  3.32759910e+00  3.34819275e+00  3.34820015e+00
  3.35483256e+00  3.39665277e+00  3.71634286e+00  3.71636788e+00
  3.73141055e+00  3.73141192e+00  3.78496087e+00  3.82302225e+00
  3.82357201e+00  3.83765326e+00  3.83765831e+00  3.88392314e+00
  3.88392760e+00  4.05919030e+00  5.05805910e+00  5.10197968e+00
  5.10198308e+00  5.12141256e+00  5.12141673e+00  5.15352052e+00
  5.15352510e+00  5.17753190e+00  5.22281978e+00  5.33015101e+00
  5.37573110e+00  5.45143745e+00  5.45143802e+00  5.52153103e+00
  5.64663618e+00  5.64664710e+00  5.64703706e+00  5.64703850e+00
  5.78530982e+00  5.78531815e+00  5.83112793e+00  5.83892484e+00
  5.83893558e+00  5.85739783e+00  5.88133730e+00  5.88133935e+00
  5.94040851e+00  5.95664209e+00  5.95666266e+00  5.96557021e+00
  6.07288874e+00  6.07289779e+00  6.07971875e+00  6.14500615e+00
  6.14500906e+00  6.19078878e+00  6.19429678e+00  6.19457601e+00
  6.26008148e+00  6.26009725e+00  6.31678374e+00  6.31678529e+00
  6.36482582e+00  6.38414300e+00  6.41318499e+00  6.41318640e+00
  6.56290603e+00  6.56290723e+00  6.67617573e+00  6.68284224e+00
  6.68284429e+00  6.79203217e+00  6.85870434e+00  6.85870447e+00
  6.94600975e+00  6.94601419e+00  7.04929630e+00  7.21551241e+00
  7.31356847e+00  7.32300023e+00  7.32300414e+00  7.37119724e+00
  7.39009828e+00  7.39010217e+00  7.46379604e+00  7.46381061e+00
  7.51957085e+00  7.51957884e+00  7.52092497e+00  7.52416466e+00
  7.59269807e+00  7.62124878e+00  7.62125551e+00  7.62560701e+00
  7.69685278e+00  7.69685415e+00  7.70343067e+00  7.70344627e+00
  7.74201907e+00  7.74203664e+00  7.79680340e+00  7.80065913e+00
  7.80067257e+00  7.82701183e+00  7.89871736e+00  7.98017518e+00
  7.98018074e+00  8.06981100e+00  8.16671886e+00  8.16673368e+00
  8.20310132e+00  8.20311746e+00  8.30049800e+00  8.31800412e+00
  8.31801478e+00  8.34897774e+00  8.40027976e+00  8.41567749e+00
  8.41569846e+00  8.41975425e+00  8.41976480e+00  8.43156487e+00
  8.55467692e+00  8.56657805e+00  8.56658732e+00  8.65126314e+00
  8.65127021e+00  8.88666886e+00  8.91400589e+00  8.93292549e+00
  8.93292568e+00  9.01000592e+00  9.07740706e+00  9.07741348e+00
  9.23610901e+00  9.23611528e+00  9.24942272e+00  9.31902468e+00
  9.31903883e+00  9.36321237e+00  9.90410916e+00  9.95391561e+00
  9.95392646e+00  1.00329763e+01  1.00329795e+01  1.00847638e+01
  1.01770368e+01  1.01770470e+01  1.02537006e+01  1.02537046e+01
  1.02792590e+01  1.03058534e+01  1.03599299e+01  1.03599311e+01
  1.03934444e+01  1.04375653e+01  1.04375670e+01  1.06519076e+01
  1.07942564e+01  1.08622969e+01  1.23932222e+01  1.23932297e+01
  1.23999461e+01  1.23999522e+01  2.02771688e+01  2.03686729e+01]
nelec by numeric integration = 14.000005453535552
    CPU time for vxc     45.51 sec, wall time      0.36 sec
    CPU time for df-vj      7.46 sec, wall time      0.06 sec
E1 = -73.24700140025831  Ecoul = 37.275277488497025  Exc = -5.519990301511442
cycle= 7 E= -14.8343733013039  delta_E= -1.62e-09  |g|= 1.05e-05  |ddm|= 0.000188
    CPU time for cycle= 7    134.91 sec, wall time      1.20 sec
  HOMO = -0.298824959989888  LUMO = 0.00606053062132566
  mo_energy =
[-6.89871606e-01 -5.55965152e-01 -3.90714743e-01 -3.90714312e-01
 -3.30159364e-01 -2.98825802e-01 -2.98824960e-01  6.06053062e-03
  4.29063397e-02  6.25704250e-02  6.25705971e-02  8.98314983e-02
  8.98316974e-02  1.59193978e-01  1.61612518e-01  1.73854346e-01
  1.73855672e-01  1.91953310e-01  1.91958502e-01  3.09158130e-01
  3.18246749e-01  3.18247022e-01  3.44890979e-01  3.61057429e-01
  3.61388531e-01  3.61390772e-01  3.79866844e-01  3.79879128e-01
  4.47494600e-01  4.73572774e-01  5.76839489e-01  5.76863552e-01
  5.79410025e-01  6.68765257e-01  6.71664823e-01  6.71675507e-01
  6.89769903e-01  7.09842033e-01  7.09850433e-01  7.55687306e-01
  7.55709037e-01  8.04953060e-01  8.18192645e-01  8.31915142e-01
  8.58541128e-01  8.58546826e-01  9.41716871e-01  9.41722719e-01
  9.64050233e-01  9.64052894e-01  9.72484533e-01  9.72486463e-01
  1.00005495e+00  1.00479354e+00  1.07070936e+00  1.07071722e+00
  1.21484407e+00  1.21486593e+00  1.24844637e+00  1.27879285e+00
  1.33241469e+00  1.33243720e+00  1.48586797e+00  1.59203897e+00
  1.67764353e+00  1.67764485e+00  1.71765804e+00  1.71766081e+00
  1.73941199e+00  1.74049855e+00  1.75412969e+00  1.77576917e+00
  1.77578870e+00  1.85054397e+00  1.85054807e+00  1.85101789e+00
  1.95364323e+00  1.95367299e+00  1.95493384e+00  1.95493661e+00
  1.99647835e+00  2.00312185e+00  2.01675789e+00  2.01676079e+00
  2.03037102e+00  2.11356790e+00  2.11357898e+00  2.15816738e+00
  2.23009142e+00  2.23009606e+00  2.30029878e+00  2.30030248e+00
  2.34503588e+00  2.36422668e+00  2.36424272e+00  2.39028736e+00
  2.41440724e+00  2.41441519e+00  2.48905355e+00  2.48907316e+00
  2.50889163e+00  2.57465261e+00  2.57467719e+00  2.57795796e+00
  2.63636033e+00  2.63636365e+00  2.73355797e+00  2.78014060e+00
  2.84912056e+00  2.84914728e+00  2.87016648e+00  2.90763942e+00
  2.92018032e+00  2.92019124e+00  3.01061140e+00  3.04680641e+00
  3.05398614e+00  3.05399365e+00  3.05524213e+00  3.10159174e+00
  3.10159775e+00  3.14503912e+00  3.14504042e+00  3.28861476e+00
  3.32755281e+00  3.32759780e+00  3.34819132e+00  3.34819872e+00
  3.35483132e+00  3.39665127e+00  3.71634155e+00  3.71636657e+00
  3.73140889e+00  3.73141027e+00  3.78495968e+00  3.82302072e+00
  3.82357031e+00  3.83765168e+00  3.83765673e+00  3.88392161e+00
  3.88392608e+00  4.05918887e+00  5.05805721e+00  5.10197790e+00
  5.10198131e+00  5.12141072e+00  5.12141489e+00  5.15351864e+00
  5.15352323e+00  5.17752986e+00  5.22281788e+00  5.33014899e+00
  5.37572907e+00  5.45143569e+00  5.45143627e+00  5.52152921e+00
  5.64663423e+00  5.64664515e+00  5.64703529e+00  5.64703674e+00
  5.78530809e+00  5.78531643e+00  5.83112599e+00  5.83892335e+00
  5.83893409e+00  5.85739592e+00  5.88133569e+00  5.88133774e+00
  5.94040745e+00  5.95664053e+00  5.95666110e+00  5.96556899e+00
  6.07288738e+00  6.07289643e+00  6.07971707e+00  6.14500462e+00
  6.14500752e+00  6.19078708e+00  6.19429539e+00  6.19457447e+00
  6.26008001e+00  6.26009577e+00  6.31678210e+00  6.31678365e+00
  6.36482420e+00  6.38414132e+00  6.41318323e+00  6.41318464e+00
  6.56290439e+00  6.56290558e+00  6.67617415e+00  6.68284063e+00
  6.68284268e+00  6.79203085e+00  6.85870244e+00  6.85870257e+00
  6.94600766e+00  6.94601210e+00  7.04929462e+00  7.21551075e+00
  7.31356704e+00  7.32299887e+00  7.32300278e+00  7.37119597e+00
  7.39009699e+00  7.39010088e+00  7.46379476e+00  7.46380933e+00
  7.51956949e+00  7.51957748e+00  7.52092359e+00  7.52416368e+00
  7.59269645e+00  7.62124762e+00  7.62125434e+00  7.62560542e+00
  7.69685161e+00  7.69685298e+00  7.70342915e+00  7.70344475e+00
  7.74201800e+00  7.74203557e+00  7.79680230e+00  7.80065773e+00
  7.80067118e+00  7.82701080e+00  7.89871628e+00  7.98017392e+00
  7.98017948e+00  8.06980941e+00  8.16671772e+00  8.16673255e+00
  8.20310008e+00  8.20311622e+00  8.30049669e+00  8.31800252e+00
  8.31801318e+00  8.34897661e+00  8.40027878e+00  8.41567642e+00
  8.41569739e+00  8.41975231e+00  8.41976286e+00  8.43156372e+00
  8.55467544e+00  8.56657672e+00  8.56658599e+00  8.65126150e+00
  8.65126857e+00  8.88666760e+00  8.91400439e+00  8.93292417e+00
  8.93292437e+00  9.01000427e+00  9.07740539e+00  9.07741182e+00
  9.23610759e+00  9.23611386e+00  9.24942059e+00  9.31902326e+00
  9.31903741e+00  9.36321104e+00  9.90410770e+00  9.95391401e+00
  9.95392486e+00  1.00329748e+01  1.00329780e+01  1.00847622e+01
  1.01770352e+01  1.01770454e+01  1.02536989e+01  1.02537029e+01
  1.02792573e+01  1.03058515e+01  1.03599282e+01  1.03599294e+01
  1.03934428e+01  1.04375636e+01  1.04375654e+01  1.06519058e+01
  1.07942546e+01  1.08622951e+01  1.23932202e+01  1.23932278e+01
  1.23999441e+01  1.23999503e+01  2.02771654e+01  2.03686695e+01]
nelec by numeric integration = 14.00000545357811
    CPU time for vxc     35.75 sec, wall time      0.29 sec
    CPU time for df-vj     10.18 sec, wall time      0.08 sec
E1 = -73.24702591202663  Ecoul = 37.27530587791725  Exc = -5.519994179192285
cycle= 8 E= -14.8343733013328  delta_E= -2.89e-11  |g|= 2.66e-07  |ddm|= 1.93e-05
    CPU time for cycle= 8    110.99 sec, wall time      0.96 sec
  HOMO = -0.298825082690083  LUMO = 0.0060604828420343
  mo_energy =
[-6.89871753e-01 -5.55965281e-01 -3.90714867e-01 -3.90714435e-01
 -3.30159518e-01 -2.98825925e-01 -2.98825083e-01  6.06048284e-03
  4.29062889e-02  6.25703675e-02  6.25705395e-02  8.98314421e-02
  8.98316412e-02  1.59193901e-01  1.61612469e-01  1.73854300e-01
  1.73855626e-01  1.91953249e-01  1.91958442e-01  3.09158074e-01
  3.18246686e-01  3.18246959e-01  3.44890892e-01  3.61057349e-01
  3.61388453e-01  3.61390694e-01  3.79866774e-01  3.79879058e-01
  4.47494564e-01  4.73572711e-01  5.76839425e-01  5.76863487e-01
  5.79409967e-01  6.68765197e-01  6.71664756e-01  6.71675440e-01
  6.89769834e-01  7.09841965e-01  7.09850364e-01  7.55687242e-01
  7.55708974e-01  8.04952969e-01  8.18192589e-01  8.31915083e-01
  8.58541062e-01  8.58546760e-01  9.41716784e-01  9.41722632e-01
  9.64050175e-01  9.64052837e-01  9.72484460e-01  9.72486390e-01
  1.00005487e+00  1.00479345e+00  1.07070927e+00  1.07071713e+00
  1.21484399e+00  1.21486585e+00  1.24844629e+00  1.27879278e+00
  1.33241462e+00  1.33243712e+00  1.48586787e+00  1.59203889e+00
  1.67764342e+00  1.67764474e+00  1.71765794e+00  1.71766071e+00
  1.73941187e+00  1.74049846e+00  1.75412961e+00  1.77576909e+00
  1.77578861e+00  1.85054388e+00  1.85054798e+00  1.85101780e+00
  1.95364313e+00  1.95367289e+00  1.95493374e+00  1.95493651e+00
  1.99647828e+00  2.00312176e+00  2.01675780e+00  2.01676070e+00
  2.03037093e+00  2.11356782e+00  2.11357890e+00  2.15816731e+00
  2.23009133e+00  2.23009597e+00  2.30029869e+00  2.30030239e+00
  2.34503580e+00  2.36422661e+00  2.36424265e+00  2.39028726e+00
  2.41440715e+00  2.41441511e+00  2.48905347e+00  2.48907309e+00
  2.50889156e+00  2.57465253e+00  2.57467711e+00  2.57795788e+00
  2.63636025e+00  2.63636357e+00  2.73355786e+00  2.78014053e+00
  2.84912046e+00  2.84914718e+00  2.87016640e+00  2.90763933e+00
  2.92018023e+00  2.92019115e+00  3.01061130e+00  3.04680632e+00
  3.05398605e+00  3.05399357e+00  3.05524204e+00  3.10159165e+00
  3.10159766e+00  3.14503902e+00  3.14504032e+00  3.28861464e+00
  3.32755272e+00  3.32759771e+00  3.34819122e+00  3.34819861e+00
  3.35483122e+00  3.39665116e+00  3.71634145e+00  3.71636647e+00
  3.73140877e+00  3.73141015e+00  3.78495959e+00  3.82302061e+00
  3.82357018e+00  3.83765157e+00  3.83765662e+00  3.88392151e+00
  3.88392597e+00  4.05918876e+00  5.05805708e+00  5.10197776e+00
  5.10198116e+00  5.12141057e+00  5.12141474e+00  5.15351852e+00
  5.15352310e+00  5.17752972e+00  5.22281775e+00  5.33014885e+00
  5.37572890e+00  5.45143557e+00  5.45143614e+00  5.52152907e+00
  5.64663410e+00  5.64664501e+00  5.64703517e+00  5.64703661e+00
  5.78530796e+00  5.78531629e+00  5.83112586e+00  5.83892323e+00
  5.83893397e+00  5.85739578e+00  5.88133557e+00  5.88133762e+00
  5.94040736e+00  5.95664041e+00  5.95666098e+00  5.96556889e+00
  6.07288727e+00  6.07289632e+00  6.07971695e+00  6.14500450e+00
  6.14500741e+00  6.19078696e+00  6.19429528e+00  6.19457435e+00
  6.26007990e+00  6.26009566e+00  6.31678198e+00  6.31678353e+00
  6.36482407e+00  6.38414118e+00  6.41318309e+00  6.41318450e+00
  6.56290426e+00  6.56290545e+00  6.67617403e+00  6.68284050e+00
  6.68284255e+00  6.79203074e+00  6.85870229e+00  6.85870243e+00
  6.94600751e+00  6.94601195e+00  7.04929448e+00  7.21551062e+00
  7.31356693e+00  7.32299876e+00  7.32300267e+00  7.37119586e+00
  7.39009688e+00  7.39010078e+00  7.46379464e+00  7.46380922e+00
  7.51956939e+00  7.51957737e+00  7.52092348e+00  7.52416358e+00
  7.59269632e+00  7.62124751e+00  7.62125424e+00  7.62560529e+00
  7.69685150e+00  7.69685287e+00  7.70342903e+00  7.70344464e+00
  7.74201791e+00  7.74203548e+00  7.79680220e+00  7.80065761e+00
  7.80067106e+00  7.82701070e+00  7.89871619e+00  7.98017382e+00
  7.98017938e+00  8.06980929e+00  8.16671762e+00  8.16673245e+00
  8.20309997e+00  8.20311611e+00  8.30049657e+00  8.31800239e+00
  8.31801305e+00  8.34897650e+00  8.40027868e+00  8.41567632e+00
  8.41569729e+00  8.41975217e+00  8.41976272e+00  8.43156362e+00
  8.55467532e+00  8.56657661e+00  8.56658588e+00  8.65126137e+00
  8.65126843e+00  8.88666749e+00  8.91400427e+00  8.93292406e+00
  8.93292425e+00  9.01000413e+00  9.07740526e+00  9.07741169e+00
  9.23610747e+00  9.23611374e+00  9.24942041e+00  9.31902313e+00
  9.31903728e+00  9.36321092e+00  9.90410758e+00  9.95391389e+00
  9.95392474e+00  1.00329746e+01  1.00329779e+01  1.00847621e+01
  1.01770351e+01  1.01770453e+01  1.02536987e+01  1.02537028e+01
  1.02792572e+01  1.03058514e+01  1.03599281e+01  1.03599292e+01
  1.03934427e+01  1.04375635e+01  1.04375653e+01  1.06519056e+01
  1.07942545e+01  1.08622950e+01  1.23932201e+01  1.23932276e+01
  1.23999440e+01  1.23999501e+01  2.02771652e+01  2.03686693e+01]
nelec by numeric integration = 14.00000545358018
    CPU time for vxc     37.57 sec, wall time      0.30 sec
    CPU time for df-vj      8.93 sec, wall time      0.07 sec
E1 = -73.24702743816025  Ecoul = 37.275307669788155  Exc = -5.519994444930821
Extra cycle  E= -14.8343733013341  delta_E= -1.25e-12  |g|= 3.57e-07  |ddm|= 1.29e-06
    CPU time for scf_cycle   1402.10 sec, wall time     11.87 sec
    CPU time for SCF   1402.12 sec, wall time     11.87 sec
converged SCF energy = -14.8343733013341
