#INFO: **** input file is /home/nkousuke/lustre/toBeSync/turboRVB/05turbo-genius-development/turbogenius_paper/04data/sanity_checks/02pyscf_prep_LDA_via_trexio/00open_boundary/results/F2/pyscf-LDA-workflow/run.py ****

from pyscf_wrapper import Pyscf_wrapper

# input variables
pyscf_chkfile="pyscf.chk"
structure_file="F2.xyz"

# input variables
omp_num_threads=128
charge=0
spin=0
basis="ccecp-ccpvqz"
ecp="ccecp"
scf_method="DFT"
dft_xc="LDA_X,LDA_C_PZ"
solver_newton=False
MP2_flag=False
CCSD_flag=False
pyscf_output="out.pyscf"
twist_average=False
exp_to_discard=0.1
kpt=[0.0, 0.0, 0.0]
kpt_grid=[1, 1, 1]
smearing_method="fermi"
smearing_sigma=0.0

pyscf_calc=Pyscf_wrapper(
                        structure_file=structure_file,
                        chkfile=pyscf_chkfile,
                        )

pyscf_calc.run_pyscf(
                  omp_num_threads=omp_num_threads,
                  charge=charge,
                  spin=spin,
                  basis=basis,
                  ecp=ecp,
                  scf_method=scf_method,
                  dft_xc=dft_xc,
                  solver_newton=solver_newton,
                  MP2_flag=MP2_flag,
                  CCSD_flag=CCSD_flag,
                  pyscf_output=pyscf_output,
                  twist_average=twist_average,
                  exp_to_discard=exp_to_discard,
                  kpt=kpt,
                  kpt_grid=kpt_grid,
                  smearing_method=smearing_method,
                  smearing_sigma=smearing_sigma
                  )
                #INFO: ******************** input file end ********************


System: uname_result(system='Linux', node='spcc-109', release='5.4.0-66-generic', version='#74-Ubuntu SMP Wed Jan 27 22:54:38 UTC 2021', machine='x86_64', processor='x86_64')  Threads 128
Python 3.7.3 (default, Mar 27 2019, 22:11:17) 
[GCC 7.3.0]
numpy 1.20.1  scipy 1.7.3
Date: Thu Dec 22 05:29:10 2022
PySCF version 2.0.1
PySCF path  /home/nkousuke/application/anaconda3/lib/python3.7/site-packages/pyscf

[CONFIG] conf_file /home/nkousuke/.pyscf_conf.py
[INPUT] verbose = 5
[INPUT] max_memory = 507848.12109375 
[INPUT] num. atoms = 2
[INPUT] num. electrons = 14
[INPUT] charge = 0
[INPUT] spin (= nelec alpha-beta = 2S) = 0
[INPUT] symmetry False subgroup None
[INPUT] Mole.unit = A
[INPUT]  1 F      0.000000000000   0.000000000000   0.706100000000 AA    0.000000000000   0.000000000000   1.334335616555 Bohr
[INPUT]  2 F      0.000000000000   0.000000000000  -0.706100000000 AA    0.000000000000   0.000000000000  -1.334335616555 Bohr
[INPUT] ---------------- BASIS SET ---------------- 
[INPUT] l, kappa, [nprim/nctr], expnt,             c_1 c_2 ...
[INPUT] F
[INPUT] 0    0    [10   /1   ]  84.048652         -2.8e-06
                                41.094617         -0.0003543
                                20.092738         0.0184088
                                9.824112          -0.1277661
                                4.803386          -0.0702872
                                2.34856           0.1571604
                                1.148301          0.3769012
                                0.561449          0.4095165
                                0.274514          0.1970893
                                0.13422           0.0243482
[INPUT] 0    0    [1    /1   ]  1.705653             1
[INPUT] 0    0    [1    /1   ]  1.048013             1
[INPUT] 0    0    [1    /1   ]  0.294345             1
[INPUT] 1    0    [10   /1   ]  31.642619         0.0029673
                                16.243233         0.0298049
                                8.338204          0.0669489
                                4.280284          0.133779
                                2.197215          0.2148312
                                1.127906          0.2664862
                                0.578992          0.2618954
                                0.297216          0.1920217
                                0.152571          0.0828465
                                0.07832           0.0133046
[INPUT] 1    0    [1    /1   ]  1.650688             1
[INPUT] 1    0    [1    /1   ]  0.64724              1
[INPUT] 1    0    [1    /1   ]  0.205806             1
[INPUT] 2    0    [1    /1   ]  4.998085             1
[INPUT] 2    0    [1    /1   ]  1.724392             1
[INPUT] 2    0    [1    /1   ]  0.587354             1
[INPUT] 3    0    [1    /1   ]  3.694285             1
[INPUT] 3    0    [1    /1   ]  1.178147             1
[INPUT] 4    0    [1    /1   ]  2.406583             1

nuclear repulsion = 18.3611976597366
number of shells = 28
number of NR pGTOs = 180
number of NR cGTOs = 108
basis = ccecp-ccpvqz
ecp = ccecp
CPU time:         6.26


******** <class 'pyscf.df.df_jk.density_fit.<locals>.DFHF'> ********
method = DFHF-RKS-RHF
initial guess = minao
damping factor = 0
level_shift factor = 0
DIIS = <class 'pyscf.scf.diis.CDIIS'>
diis_start_cycle = 1
diis_space = 8
SCF conv_tol = 1e-09
SCF conv_tol_grad = None
SCF max_cycles = 200
direct_scf = True
direct_scf_tol = 1e-13
chkfile to save SCF result = pyscf.chk
max_memory 507848 MB (current use 106 MB)
XC library pyscf.dft.libxc version 5.1.7
    S. Lehtola, C. Steigemann, M. J. Oliveira, and M. A. Marques, SoftwareX 7, 1 (2018)
XC functionals = LDA_X,LDA_C_PZ
    P. A. M. Dirac, Math. Proc. Cambridge Philos. Soc. 26, 376 (1930)
    F. Bloch, Z. Phys. 57, 545 (1929)
    J. P. Perdew and A. Zunger, Phys. Rev. B 23, 5048 (1981)
radial grids: 
    Treutler-Ahlrichs [JCP 102, 346 (1995); DOI:10.1063/1.469408] (M4) radial grids
    
becke partition: Becke, JCP 88, 2547 (1988); DOI:10.1063/1.454033
pruning grids: <function nwchem_prune at 0x14da00cb8730>
grids dens level: 3
symmetrized grids: False
atomic radii adjust function: <function treutler_atomic_radii_adjust at 0x14da00cb8620>
small_rho_cutoff = 1e-07
Set gradient conv threshold to 3.16228e-05
atom F rad-grids = 75, ang-grids = [ 50  50  50  50  50  50  50  50  50  50  50  50  50  50  50  50  50  50
  50  50  50  86  86  86  86  86  86  86  86  86 266 266 266 266 266 266
 302 302 302 302 302 302 302 302 302 302 302 302 302 302 302 302 302 302
 266 266 266 266 266 266 266 266 266 266 266 266 266 266 266 266 266 266
 266 266 266]
tot grids = 28884
Drop grids 2334
    CPU time for setting up grids     30.12 sec, wall time      0.25 sec
nelec by numeric integration = 14.000000314327657
    CPU time for vxc     35.29 sec, wall time      0.28 sec
Even tempered Gaussians are generated as DF auxbasis for  F
  ETB auxbasis for F  [[0, [34.36032, 1]], [0, [17.18016, 1]], [0, [8.59008, 1]], [0, [4.29504, 1]], [0, [2.14752, 1]], [0, [1.07376, 1]], [0, [0.53688, 1]], [0, [0.26844, 1]], [1, [26.24731733290852, 1]], [1, [13.12365866645426, 1]], [1, [6.56182933322713, 1]], [1, [3.280914666613565, 1]], [1, [1.6404573333067825, 1]], [1, [0.8202286666533912, 1]], [1, [0.4101143333266956, 1]], [1, [0.2050571666633478, 1]], [2, [40.09984, 1]], [2, [20.04992, 1]], [2, [10.02496, 1]], [2, [5.01248, 1]], [2, [2.50624, 1]], [2, [1.25312, 1]], [2, [0.62656, 1]], [2, [0.31328, 1]], [2, [0.15664, 1]], [3, [13.72670431629093, 1]], [3, [6.863352158145465, 1]], [3, [3.4316760790727323, 1]], [3, [1.7158380395363662, 1]], [3, [0.8579190197681831, 1]], [3, [0.42895950988409154, 1]], [4, [9.397664, 1]], [4, [4.698832, 1]], [4, [2.349416, 1]], [4, [1.174708, 1]]]
num shells = 70, num cGTOs = 310
    CPU time for df-vj     40.88 sec, wall time      0.32 sec
E1 = -118.46284692187409  Ecoul = 60.711931779124676  Exc = -8.901844929485533
init E= -48.2915624124984
cond(S) = 1944.9768348363773
    CPU time for initialize scf    228.05 sec, wall time      1.92 sec
  HOMO = -0.341432507287116  LUMO = -0.16391507814475
  mo_energy =
[-1.2079365  -1.00272999 -0.52945507 -0.463165   -0.463165   -0.34143251
 -0.34143251 -0.16391508  0.34205439  0.40822904  0.40822904  0.49304648
  0.52090429  0.52090429  0.65668179  1.1288374   1.1288374   1.13929031
  1.13929176  1.16923077  1.41551469  1.41551618  1.67974378  1.7845441
  1.85540868  1.85540868  2.41995269  2.41995269  2.49756375  2.64087622
  2.64087622  3.60106651  3.77386091  3.77386162  3.80313558  3.80313558
  3.86046223  4.0349539   4.0349539   4.17858803  4.17858803  4.50636401
  4.50636941  4.7169062   4.71691919  4.86512309  4.86512309  4.87403223
  4.91261831  4.91262463  4.92730446  4.92730446  4.99044296  5.22886834
  5.71642915  5.71642915  5.97316635  6.82238413  9.7349468   9.7349468
  9.84887803  9.84887803  9.95414405 10.85581312 10.85581312 10.98286
 11.08902463 11.08902783 11.20465036 11.28004654 11.28004654 11.33444992
 11.33479613 11.3418945  11.34224083 11.38462878 11.38462878 11.63005829
 11.6300612  12.2373764  12.2373764  12.52396994 14.64176689 14.64180914
 14.73871087 14.73871087 14.75497966 14.75497966 14.81377994 14.81377994
 14.90936933 15.03330989 15.03344511 15.21945304 15.21958926 15.33813063
 15.33954158 15.33958832 15.39578447 15.39578447 15.45440941 15.45440941
 15.90605799 15.90605799 16.37640519 16.92943456 32.70875407 32.84092933]
nelec by numeric integration = 14.000000325271781
    CPU time for vxc     41.46 sec, wall time      0.34 sec
    CPU time for df-vj      9.52 sec, wall time      0.08 sec
E1 = -117.78976630807945  Ecoul = 60.075014719408514  Exc = -8.871036825861296
cycle= 1 E= -48.2245907547956  delta_E= 0.067  |g|= 0.286  |ddm|= 2.06
    CPU time for cycle= 1     71.71 sec, wall time      0.65 sec
  HOMO = -0.368421099894574  LUMO = -0.250097121460036
  mo_energy =
[-1.29022222 -1.03548007 -0.58937457 -0.49856405 -0.49856405 -0.3684211
 -0.3684211  -0.25009712  0.3352311   0.39332691  0.39332691  0.47914936
  0.51002269  0.51002269  0.62698147  1.0820305   1.0820305   1.11754509
  1.11754661  1.14803562  1.40498739  1.40498898  1.62788867  1.76398115
  1.83407612  1.83407612  2.39272894  2.39272894  2.43713329  2.61699546
  2.61699546  3.56371164  3.73115961  3.73115961  3.73196715  3.73196845
  3.7604415   4.01930536  4.01930536  4.16555618  4.16555618  4.45997146
  4.45997727  4.69399436  4.69400694  4.792285    4.792285    4.81217805
  4.87908868  4.87908868  4.90380728  4.90381323  4.94331572  5.20155061
  5.68369092  5.68369092  5.93307234  6.72715054  9.69467255  9.69467255
  9.81197168  9.81197168  9.89610842 10.78785106 10.78785106 10.93703497
 11.03325676 11.03326063 11.12155082 11.2410427  11.2410427  11.3225014
 11.32285521 11.32998681 11.33034074 11.34404137 11.34404137 11.56337156
 11.56337518 12.1421161  12.1421161  12.42055738 14.58674755 14.5867975
 14.66226246 14.66226246 14.7191144  14.7191144  14.79566179 14.79566179
 14.80298448 14.97369646 14.97384087 15.18719982 15.18733229 15.29249782
 15.32082692 15.32086849 15.35008785 15.35008785 15.37997805 15.37997805
 15.86085715 15.86085715 16.32541978 16.83336353 32.65701936 32.7871942 ]
nelec by numeric integration = 14.00000035319458
    CPU time for vxc     33.52 sec, wall time      0.26 sec
    CPU time for df-vj      8.00 sec, wall time      0.06 sec
E1 = -118.38153875752576  Ecoul = 60.735677488817636  Exc = -8.943966707996253
cycle= 2 E= -48.2286303169678  delta_E= -0.00404  |g|= 0.196  |ddm|= 0.269
    CPU time for cycle= 2     90.29 sec, wall time      0.71 sec
  HOMO = -0.342344687267195  LUMO = -0.213186116116637
  mo_energy =
[-1.24622003 -1.01261267 -0.56822167 -0.46998696 -0.46998696 -0.34234469
 -0.34234469 -0.21318612  0.3368639   0.40601769  0.40601769  0.4847914
  0.51781642  0.51781642  0.64527498  1.10331678  1.10331678  1.13478829
  1.13478983  1.16201704  1.41728804  1.41728965  1.64852002  1.76750095
  1.84286927  1.84286927  2.4134759   2.4134759   2.46286923  2.63912997
  2.63912997  3.58414594  3.7530479   3.75304896  3.76158758  3.76158758
  3.79997662  4.03780555  4.03780555  4.18312543  4.18312543  4.48716569
  4.48717118  4.72036245  4.72037514  4.82685828  4.82685828  4.83766829
  4.90151514  4.90151514  4.9206283   4.92063441  4.97082707  5.2157616
  5.69536919  5.69536919  5.9471061   6.76771664  9.72809209  9.72809209
  9.84460224  9.84460224  9.92795243 10.81510035 10.81510035 10.96612673
 11.05907684 11.05908038 11.15879711 11.26673417 11.26673417 11.34628408
 11.34663842 11.35375878 11.35411324 11.37060557 11.37060557 11.59512229
 11.59512555 12.18361557 12.18361557 12.46598032 14.62101859 14.62106596
 14.70721287 14.70721287 14.75046837 14.75046837 14.82631043 14.82631043
 14.8532567  15.01102533 15.01116571 15.22250826 15.22264502 15.31432903
 15.34883343 15.34888074 15.37830019 15.37830019 15.42146911 15.42146911
 15.88237828 15.88237828 16.34918805 16.87359151 32.70009472 32.83095815]
nelec by numeric integration = 14.000000340627086
    CPU time for vxc     37.47 sec, wall time      0.29 sec
    CPU time for df-vj      8.13 sec, wall time      0.06 sec
E1 = -117.95256680291767  Ecoul = 60.23422217796261  Exc = -8.876783143351597
cycle= 3 E= -48.2339301085701  delta_E= -0.0053  |g|= 0.0505  |ddm|= 0.179
    CPU time for cycle= 3    100.48 sec, wall time      0.79 sec
  HOMO = -0.352977888562152  LUMO = -0.223933192888982
  mo_energy =
[-1.25752592 -1.02222248 -0.57641542 -0.48010932 -0.48010932 -0.35297789
 -0.35297789 -0.22393319  0.33507522  0.40155754  0.40155754  0.48266796
  0.51455883  0.51455883  0.63984507  1.09824146  1.09824146  1.12980177
  1.12980334  1.15740503  1.41268703  1.41268866  1.64309561  1.76467856
  1.83927431  1.83927431  2.40552572  2.40552572  2.45509658  2.63085738
  2.63085738  3.57763136  3.74721552  3.74721648  3.75494495  3.75494495
  3.79197704  4.0313812   4.0313812   4.17673853  4.17673853  4.47968809
  4.47969351  4.71024599  4.71025861  4.81749754  4.81749754  4.82941054
  4.89335748  4.89335748  4.91229795  4.91230395  4.960767    5.20848681
  5.69027178  5.69027178  5.9404594   6.75771141  9.71419381  9.71419381
  9.83082177  9.83082177  9.91653162 10.8071231  10.8071231  10.95450246
 11.05091823 11.05092164 11.14863809 11.25790961 11.25790961 11.33670261
 11.3370564  11.34417686 11.34453078 11.36165753 11.36165753 11.58615335
 11.58615649 12.17357841 12.17357841 12.45509994 14.6085668  14.60861454
 14.69402979 14.69402979 14.73708569 14.73708569 14.81301845 14.81301845
 14.83906126 14.99803675 14.99817818 15.20732322 15.20745926 15.30325158
 15.33474541 15.33479131 15.36550486 15.36550486 15.40718184 15.40718184
 15.8721915  15.8721915  16.33824247 16.86151903 32.68139812 32.81225846]
nelec by numeric integration = 14.000000344043624
    CPU time for vxc     37.39 sec, wall time      0.32 sec
    CPU time for df-vj      7.09 sec, wall time      0.06 sec
E1 = -118.1063072599752  Ecoul = 60.41701888712972  Exc = -8.90616025504008
cycle= 4 E= -48.234250968149  delta_E= -0.000321  |g|= 0.0178  |ddm|= 0.0652
    CPU time for cycle= 4    116.08 sec, wall time      0.95 sec
  HOMO = -0.350104918870226  LUMO = -0.220875297851026
  mo_energy =
[-1.25491494 -1.01926722 -0.57343957 -0.47755528 -0.47755528 -0.35010492
 -0.35010492 -0.2208753   0.33607151  0.40259011  0.40259011  0.48357081
  0.51542761  0.51542761  0.64105462  1.09947409  1.09947409  1.13077693
  1.1307785   1.15852278  1.41373916  1.41374079  1.64471778  1.76621625
  1.84052071  1.84052071  2.40766344  2.40766344  2.4574496   2.63290952
  2.63290952  3.57943074  3.7486977   3.74869864  3.7564689   3.7564689
  3.7937933   4.03277745  4.03277745  4.17815687  4.17815687  4.48134702
  4.48135243  4.71273598  4.71274859  4.8198754   4.8198754   4.83200542
  4.89592515  4.89592515  4.91467571  4.91468171  4.96363562  5.21106331
  5.69219609  5.69219609  5.9430564   6.76026467  9.71803754  9.71803754
  9.83462263  9.83462263  9.92005574 10.80953537 10.80953537 10.95816953
 11.0533028  11.05330619 11.15137465 11.26023862 11.26023862 11.33898134
 11.33933506 11.34645601 11.34680985 11.3639806  11.3639806  11.58850923
 11.58851236 12.17600237 12.17600237 12.45766841 14.61204906 14.61209696
 14.69747225 14.69747225 14.74055182 14.74055182 14.81648724 14.81648724
 14.84271604 15.00150335 15.00164483 15.21143583 15.2115718  15.30731342
 15.33887556 15.33892149 15.36964702 15.36964702 15.41119368 15.41119368
 15.87575833 15.87575833 16.34214237 16.86508194 32.68687759 32.81770441]
nelec by numeric integration = 14.00000034330228
    CPU time for vxc     31.99 sec, wall time      0.25 sec
    CPU time for df-vj      7.87 sec, wall time      0.06 sec
E1 = -118.066634441395  Ecoul = 60.36884548181998  Exc = -8.897701648881721
cycle= 5 E= -48.2342929487202  delta_E= -4.2e-05  |g|= 0.000143  |ddm|= 0.019
    CPU time for cycle= 5    101.60 sec, wall time      0.81 sec
  HOMO = -0.350126187125447  LUMO = -0.220906707893911
  mo_energy =
[-1.25494793 -1.0192886  -0.57346506 -0.47757768 -0.47757768 -0.35012619
 -0.35012619 -0.22090671  0.33606596  0.40257714  0.40257714  0.48356343
  0.51541681  0.51541681  0.6410383   1.09945553  1.09945553  1.13076296
  1.13076453  1.15850932  1.41372776  1.41372938  1.64469854  1.76620802
  1.84050957  1.84050957  2.40764511  2.40764511  2.45742604  2.63289119
  2.63289119  3.57941249  3.74867936  3.7486803   3.75644323  3.75644323
  3.79375972  4.0327637   4.0327637   4.17814369  4.17814369  4.4813261
  4.48133151  4.71271632  4.71272893  4.81984644  4.81984644  4.83198101
  4.89590275  4.89590275  4.91466058  4.91466658  4.96361138  5.21104592
  5.69218072  5.69218072  5.94303758  6.76023136  9.71801005  9.71801005
  9.83459595  9.83459595  9.92002763 10.80950913 10.80950913 10.9581434
 11.05327885 11.05328222 11.15134289 11.26021745 11.26021745 11.33896515
 11.33931886 11.34643982 11.34679366 11.36395904 11.36395904 11.58848242
 11.58848554 12.17596866 12.17596866 12.45763262 14.61202002 14.61206792
 14.69743701 14.69743701 14.74052868 14.74052868 14.81646439 14.81646439
 14.84267756 15.00147435 15.00161584 15.21140798 15.21154394 15.30728571
 15.33884973 15.33889566 15.36961768 15.36961768 15.41115967 15.41115967
 15.87573249 15.87573249 16.34211382 16.86504666 32.68684274 32.81766925]
nelec by numeric integration = 14.000000343308692
    CPU time for vxc     34.89 sec, wall time      0.27 sec
    CPU time for df-vj      7.87 sec, wall time      0.06 sec
E1 = -118.0669258577906  Ecoul = 60.36918522081003  Exc = -8.897749974361929
cycle= 6 E= -48.2342929516059  delta_E= -2.89e-09  |g|= 1.62e-06  |ddm|= 0.000114
    CPU time for cycle= 6    107.58 sec, wall time      0.85 sec
  HOMO = -0.350126204782541  LUMO = -0.220906884227468
  mo_energy =
[-1.25494797 -1.01928861 -0.57346508 -0.47757766 -0.47757766 -0.3501262
 -0.3501262  -0.22090688  0.33606584  0.40257712  0.40257712  0.48356333
  0.51541669  0.51541669  0.64103835  1.0994556   1.0994556   1.13076304
  1.13076461  1.15850931  1.41372777  1.4137294   1.64469852  1.76620784
  1.84050948  1.84050948  2.40764508  2.40764508  2.45742597  2.63289122
  2.63289122  3.57941254  3.74867941  3.74868035  3.75644325  3.75644325
  3.79375971  4.03276377  4.03276377  4.17814376  4.17814376  4.48132611
  4.48133151  4.71271634  4.71272894  4.8198464   4.8198464   4.83198092
  4.89590273  4.89590273  4.91466061  4.91466661  4.96361136  5.21104589
  5.6921807   5.6921807   5.94303755  6.76023125  9.71801002  9.71801002
  9.83459592  9.83459592  9.9200276  10.8095091  10.8095091  10.95814339
 11.05327884 11.05328221 11.15134286 11.26021746 11.26021746 11.3389652
 11.33931892 11.34643988 11.34679371 11.36395905 11.36395905 11.5884824
 11.58848551 12.17596859 12.17596859 12.45763249 14.61201997 14.61206787
 14.69743681 14.69743681 14.74052867 14.74052867 14.81646439 14.81646439
 14.8426773  15.00147422 15.0016157  15.21140793 15.2115439  15.3072858
 15.33884979 15.33889572 15.36961774 15.36961774 15.41115953 15.41115953
 15.87573255 15.87573255 16.34211391 16.8650465  32.68684268 32.81766918]
nelec by numeric integration = 14.000000343308942
    CPU time for vxc     32.45 sec, wall time      0.25 sec
    CPU time for df-vj      6.58 sec, wall time      0.05 sec
E1 = -118.06692592291952  Ecoul = 60.3691853344252  Exc = -8.897750022848419
cycle= 7 E= -48.2342929516062  delta_E= -2.56e-13  |g|= 1.93e-07  |ddm|= 1.6e-06
    CPU time for cycle= 7     90.80 sec, wall time      0.71 sec
  HOMO = -0.35012630622899  LUMO = -0.220906989428641
  mo_energy =
[-1.25494808 -1.01928872 -0.57346517 -0.47757776 -0.47757776 -0.35012631
 -0.35012631 -0.22090699  0.3360658   0.40257707  0.40257707  0.4835633
  0.51541665  0.51541665  0.64103828  1.09945553  1.09945553  1.13076298
  1.13076455  1.15850925  1.41372772  1.41372935  1.64469844  1.76620779
  1.84050943  1.84050943  2.407645    2.407645    2.45742589  2.63289114
  2.63289114  3.57941247  3.74867933  3.74868027  3.75644317  3.75644317
  3.79375962  4.0327637   4.0327637   4.17814368  4.17814368  4.48132602
  4.48133143  4.71271624  4.71272885  4.8198463   4.8198463   4.83198082
  4.89590264  4.89590264  4.91466052  4.91466652  4.96361126  5.2110458
  5.69218062  5.69218062  5.94303746  6.76023115  9.7180099   9.7180099
  9.83459581  9.83459581  9.92002749 10.809509   10.809509   10.95814328
 11.05327874 11.05328211 11.15134275 11.26021736 11.26021736 11.33896511
 11.33931882 11.34643978 11.34679362 11.36395895 11.36395895 11.5884823
 11.58848541 12.17596848 12.17596848 12.45763239 14.61201985 14.61206776
 14.69743669 14.69743669 14.74052855 14.74052855 14.81646427 14.81646427
 14.84267718 15.0014741  15.00161558 15.21140781 15.21154377 15.30728568
 15.33884967 15.3388956  15.36961762 15.36961762 15.4111594  15.4111594
 15.87573244 15.87573244 16.34211379 16.86504638 32.68684254 32.81766904]
nelec by numeric integration = 14.00000034330896
    CPU time for vxc     28.06 sec, wall time      0.22 sec
    CPU time for df-vj      2.56 sec, wall time      0.02 sec
E1 = -118.0669270036963  Ecoul = 60.369186623592284  Exc = -8.897750231238822
Extra cycle  E= -48.2342929516063  delta_E= -1.14e-13  |g|= 2.37e-07  |ddm|= 4.39e-07
    CPU time for scf_cycle    946.52 sec, wall time      7.70 sec
    CPU time for SCF    946.59 sec, wall time      7.71 sec
converged SCF energy = -48.2342929516063
