#INFO: **** input file is /home/nkousuke/lustre/toBeSync/turboRVB/05turbo-genius-development/turbogenius_paper/04data/sanity_checks/02pyscf_prep_LDA_via_trexio/00open_boundary/results/NaCl/pyscf-LDA-workflow/run.py ****

from pyscf_wrapper import Pyscf_wrapper

# input variables
pyscf_chkfile="pyscf.chk"
structure_file="NaCl.xyz"

# input variables
omp_num_threads=128
charge=0
spin=0
basis="ccecp-ccpvqz"
ecp="ccecp"
scf_method="DFT"
dft_xc="LDA_X,LDA_C_PZ"
solver_newton=False
MP2_flag=False
CCSD_flag=False
pyscf_output="out.pyscf"
twist_average=False
exp_to_discard=0.1
kpt=[0.0, 0.0, 0.0]
kpt_grid=[1, 1, 1]
smearing_method="fermi"
smearing_sigma=0.0

pyscf_calc=Pyscf_wrapper(
                        structure_file=structure_file,
                        chkfile=pyscf_chkfile,
                        )

pyscf_calc.run_pyscf(
                  omp_num_threads=omp_num_threads,
                  charge=charge,
                  spin=spin,
                  basis=basis,
                  ecp=ecp,
                  scf_method=scf_method,
                  dft_xc=dft_xc,
                  solver_newton=solver_newton,
                  MP2_flag=MP2_flag,
                  CCSD_flag=CCSD_flag,
                  pyscf_output=pyscf_output,
                  twist_average=twist_average,
                  exp_to_discard=exp_to_discard,
                  kpt=kpt,
                  kpt_grid=kpt_grid,
                  smearing_method=smearing_method,
                  smearing_sigma=smearing_sigma
                  )
                #INFO: ******************** input file end ********************


System: uname_result(system='Linux', node='spcc-104', release='5.4.0-66-generic', version='#74-Ubuntu SMP Wed Jan 27 22:54:38 UTC 2021', machine='x86_64', processor='x86_64')  Threads 128
Python 3.7.3 (default, Mar 27 2019, 22:11:17) 
[GCC 7.3.0]
numpy 1.21.6  scipy 1.7.3
Date: Wed Dec 28 11:29:27 2022
PySCF version 2.1.1
PySCF path  /home/nkousuke/application/anaconda3/lib/python3.7/site-packages/pyscf

[CONFIG] conf_file /home/nkousuke/.pyscf_conf.py
[INPUT] verbose = 5
[INPUT] max_memory = 505152.61328125 
[INPUT] num. atoms = 2
[INPUT] num. electrons = 8
[INPUT] charge = 0
[INPUT] spin (= nelec alpha-beta = 2S) = 0
[INPUT] symmetry False subgroup None
[INPUT] Mole.unit = A
[INPUT] Symbol           X                Y                Z      unit          X                Y                Z       unit  Magmom
[INPUT]  1 Na     0.000000000000   0.000000000000   0.000000000000 AA    0.000000000000   0.000000000000   0.000000000000 Bohr   0.0
[INPUT]  2 Cl     0.000000000000   0.000000000000   2.360800000000 AA    0.000000000000   0.000000000000   4.461265434873 Bohr   0.0
[INPUT] ---------------- BASIS SET ---------------- 
[INPUT] l, kappa, [nprim/nctr], expnt,             c_1 c_2 ...
[INPUT] Cl
[INPUT] 0    0    [10   /1   ]  15.583847         0.002501
                                8.858485          -0.010046
                                5.035519          0.08581
                                2.862391          -0.290136
                                1.627098          -0.140314
                                0.924908          0.146839
                                0.525755          0.392484
                                0.29886           0.425061
                                0.169884          0.227195
                                0.096569          0.059828
[INPUT] 0    0    [1    /1   ]  1.038268             1
[INPUT] 0    0    [1    /1   ]  0.418863             1
[INPUT] 0    0    [1    /1   ]  0.16898              1
[INPUT] 1    0    [10   /1   ]  7.682894          -0.004609
                                4.507558          -0.001798
                                2.644587          -0.068614
                                1.551581          0.062352
                                0.910313          0.166337
                                0.534081          0.282292
                                0.313346          0.275967
                                0.18384           0.241328
                                0.107859          0.110223
                                0.063281          0.040289
[INPUT] 1    0    [1    /1   ]  2.626653             1
[INPUT] 1    0    [1    /1   ]  1.069041             1
[INPUT] 1    0    [1    /1   ]  0.435097             1
[INPUT] 2    0    [1    /1   ]  2.102692             1
[INPUT] 2    0    [1    /1   ]  0.763188             1
[INPUT] 2    0    [1    /1   ]  0.277005             1
[INPUT] 3    0    [1    /1   ]  1.139446             1
[INPUT] 3    0    [1    /1   ]  0.434852             1
[INPUT] 4    0    [1    /1   ]  0.844301             1
[INPUT] Na
[INPUT] 0    0    [10   /1   ]  22.091548         -6.4e-05
                                9.660603          0.000452
                                4.224568          -0.002616
                                1.847398          0.024309
                                0.807864          -0.099989
                                0.353278          -0.109801
                                0.154488          0.032993
                                0.067557          0.37763
                                0.029543          0.400459
                                0.012919          0.072453
[INPUT] 0    0    [1    /1   ]  0.01612              1
[INPUT] 0    0    [1    /1   ]  0.03289              1
[INPUT] 0    0    [1    /1   ]  0.067106             1
[INPUT] 1    0    [10   /1   ]  9.29421           1.1e-05
                                4.233556          -8.1e-05
                                1.928405          0.000955
                                0.878398          -0.006278
                                0.400114          -0.009165
                                0.182254          0.011214
                                0.083018          0.064076
                                0.037815          0.027336
                                0.017225          0.027603
                                0.007846          -0.005374
[INPUT] 1    0    [1    /1   ]  0.01342              1
[INPUT] 1    0    [1    /1   ]  0.03126              1
[INPUT] 1    0    [1    /1   ]  0.072816             1
[INPUT] 2    0    [1    /1   ]  0.0487               1
[INPUT] 2    0    [1    /1   ]  0.0865               1
[INPUT] 2    0    [1    /1   ]  0.15364              1
[INPUT] 3    0    [1    /1   ]  0.1036               1
[INPUT] 3    0    [1    /1   ]  0.1912               1
[INPUT] 4    0    [1    /1   ]  0.1722               1

nuclear repulsion = 1.56906153695358
number of shells = 28
number of NR pGTOs = 180
number of NR cGTOs = 108
basis = ccecp-ccpvqz
ecp = ccecp
CPU time:         1.09


******** <class 'pyscf.df.df_jk.density_fit.<locals>.DensityFitting'> ********
method = DensityFitting-RKS
initial guess = minao
damping factor = 0
level_shift factor = 0
DIIS = <class 'pyscf.scf.diis.CDIIS'>
diis_start_cycle = 1
diis_space = 8
SCF conv_tol = 1e-09
SCF conv_tol_grad = None
SCF max_cycles = 200
direct_scf = True
direct_scf_tol = 1e-13
chkfile to save SCF result = pyscf.chk
max_memory 505152 MB (current use 103 MB)
XC library pyscf.dft.libxc version 5.2.0
    S. Lehtola, C. Steigemann, M. J. Oliveira, and M. A. Marques, SoftwareX 7, 1 (2018)
XC functionals = LDA_X,LDA_C_PZ
    P. A. M. Dirac, Math. Proc. Cambridge Philos. Soc. 26, 376 (1930)
    F. Bloch, Z. Phys. 57, 545 (1929)
    J. P. Perdew and A. Zunger, Phys. Rev. B 23, 5048 (1981)
radial grids: 
    Treutler-Ahlrichs [JCP 102, 346 (1995); DOI:10.1063/1.469408] (M4) radial grids
    
becke partition: Becke, JCP 88, 2547 (1988); DOI:10.1063/1.454033
pruning grids: <function nwchem_prune at 0x14eef45321e0>
grids dens level: 3
symmetrized grids: False
atomic radii adjust function: <function treutler_atomic_radii_adjust at 0x14eef45320d0>
small_rho_cutoff = 1e-07
Set gradient conv threshold to 3.16228e-05
atom Na rad-grids = 80, ang-grids = [ 50  50  50  50  50  50  50  50  50  50  50  50  50  50  50  50  50  50
  50  50  50  50  50  50  50  50  50  50  86  86  86  86  86  86  86  86
  86  86  86  86  86  86  86  86 350 350 350 350 350 350 350 350 350 350
 350 434 434 434 434 434 434 434 434 434 434 434 434 434 434 434 434 434
 434 350 350 350 350 350 350 350]
atom Cl rad-grids = 80, ang-grids = [ 50  50  50  50  50  50  50  50  50  50  50  50  50  50  50  50  50  50
  50  50  50  50  50  50  86  86  86  86  86  86  86  86  86  86  86  86
  86 350 350 350 350 350 350 350 350 350 434 434 434 434 434 434 434 434
 434 434 434 434 434 434 434 434 434 434 350 350 350 350 350 350 350 350
 350 350 350 350 350 350 350 350]
tot_boxes 1053, boxes in each direction [ 7  7 11]
Padding 0 grids
tot grids = 35768
Drop grids 854
prune_by_density_: 6 padding grids
    CPU time for setting up grids     16.66 sec, wall time      0.17 sec
nelec by numeric integration = 7.999999599455742
    CPU time for vxc     14.60 sec, wall time      0.13 sec
Even tempered Gaussians are generated as DF auxbasis for  Cl Na
  ETB auxbasis for Cl  [[0, [24.721664, 1]], [0, [12.360832, 1]], [0, [6.180416, 1]], [0, [3.090208, 1]], [0, [1.545104, 1]], [0, [0.772552, 1]], [0, [0.386276, 1]], [0, [0.193138, 1]], [1, [20.012230625632515, 1]], [1, [10.006115312816258, 1]], [1, [5.003057656408129, 1]], [1, [2.5015288282040644, 1]], [1, [1.2507644141020322, 1]], [1, [0.6253822070510161, 1]], [1, [0.31269110352550805, 1]], [1, [0.15634555176275403, 1]], [2, [8.099968, 1]], [2, [4.049984, 1]], [2, [2.024992, 1]], [2, [1.012496, 1]], [2, [0.506248, 1]], [2, [0.253124, 1]], [2, [0.126562, 1]], [3, [4.236726694834115, 1]], [3, [2.1183633474170573, 1]], [3, [1.0591816737085287, 1]], [3, [0.5295908368542643, 1]], [3, [0.26479541842713217, 1]], [4, [4.43208, 1]], [4, [2.21604, 1]], [4, [1.10802, 1]], [4, [0.55401, 1]]]
  ETB auxbasis for Na  [[0, [6.614528, 1]], [0, [3.307264, 1]], [0, [1.653632, 1]], [0, [0.826816, 1]], [0, [0.413408, 1]], [0, [0.206704, 1]], [0, [0.103352, 1]], [0, [0.051676, 1]], [0, [0.025838, 1]], [1, [2.5773806657271257, 1]], [1, [1.2886903328635628, 1]], [1, [0.6443451664317814, 1]], [1, [0.3221725832158907, 1]], [1, [0.16108629160794535, 1]], [1, [0.08054314580397268, 1]], [1, [0.04027157290198634, 1]], [1, [0.02013578645099317, 1]], [2, [1.004288, 1]], [2, [0.502144, 1]], [2, [0.251072, 1]], [2, [0.125536, 1]], [2, [0.062768, 1]], [2, [0.031384, 1]], [2, [0.015692, 1]], [3, [0.6255162706117244, 1]], [3, [0.3127581353058622, 1]], [3, [0.1563790676529311, 1]], [3, [0.07818953382646555, 1]], [3, [0.03909476691323278, 1]], [4, [0.3896, 1]], [4, [0.1948, 1]], [4, [0.0974, 1]]]
num shells = 64, num cGTOs = 268
    CPU time for df-vj      9.54 sec, wall time      0.08 sec
E1 = -27.828496569794794  Ecoul = 14.1096346912131  Exc = -2.8767733729916665
init E= -15.0265737146198
cond(S) = 5665.240467376289
    CPU time for initialize scf     69.06 sec, wall time      0.74 sec
  HOMO = -0.329605140900182  LUMO = -0.0867394345148631
  mo_energy =
[-7.80483980e-01 -3.44362524e-01 -3.29605141e-01 -3.29605141e-01
 -8.67394345e-02 -2.67414707e-02 -2.67414707e-02 -1.76716596e-02
  1.28366689e-02  2.72116223e-02  2.72116223e-02  3.78319013e-02
  4.86208171e-02  4.86208343e-02  6.48179841e-02  6.48179841e-02
  7.40491935e-02  1.26758661e-01  1.34397658e-01  1.34397658e-01
  1.69743638e-01  2.01993007e-01  2.01993007e-01  2.02184213e-01
  2.02184620e-01  2.52967019e-01  2.52967042e-01  2.72458251e-01
  2.80947008e-01  2.80947008e-01  2.95153389e-01  3.05387663e-01
  3.05387663e-01  3.77216021e-01  3.77216942e-01  3.80363588e-01
  3.87811997e-01  3.87811997e-01  5.03251061e-01  5.94159295e-01
  5.94159295e-01  6.53907473e-01  6.53907521e-01  6.70505814e-01
  6.70505814e-01  6.98847035e-01  7.37902939e-01  7.37902939e-01
  7.59373451e-01  7.59373494e-01  7.91090527e-01  7.91090662e-01
  8.45752500e-01  8.68585434e-01  8.68585536e-01  8.94164650e-01
  8.94164650e-01  8.99048002e-01  9.02629735e-01  9.02629735e-01
  9.83555242e-01  9.93509369e-01  9.93509369e-01  1.28454915e+00
  1.28454915e+00  1.30220018e+00  1.30220075e+00  1.30996645e+00
  1.35872827e+00  1.35872827e+00  1.39697250e+00  1.53049914e+00
  1.53050002e+00  1.85156675e+00  1.85156675e+00  2.36292473e+00
  2.36292473e+00  2.41263587e+00  2.48917789e+00  2.48917789e+00
  2.70041227e+00  3.10531556e+00  3.51352735e+00  3.51357162e+00
  3.51908460e+00  3.51908460e+00  3.53007025e+00  3.53007025e+00
  3.53374074e+00  3.53560515e+00  3.53561745e+00  3.89473030e+00
  3.89473030e+00  3.89550421e+00  3.97924589e+00  3.97925815e+00
  4.04808160e+00  4.04808160e+00  4.22600530e+00  4.62831482e+00
  4.62844329e+00  4.66044177e+00  4.89058924e+00  4.89058924e+00
  1.09549438e+01  1.09549438e+01  1.10821480e+01  1.74334624e+01]
nelec by numeric integration = 7.999996593061351
    CPU time for vxc     13.93 sec, wall time      0.12 sec
    CPU time for df-vj      4.77 sec, wall time      0.04 sec
E1 = -29.610030699893425  Ecoul = 16.096527486711118  Exc = -3.19026586322868
cycle= 1 E= -15.1347075394574  delta_E= -0.108  |g|= 0.299  |ddm|= 1.39
    CPU time for cycle= 1     20.87 sec, wall time      0.18 sec
  HOMO = -0.102550349730153  LUMO = -0.0448838818153222
  mo_energy =
[-5.12056356e-01 -1.21958198e-01 -1.02550350e-01 -1.02550350e-01
 -4.48838818e-02  6.48743275e-03  6.48743275e-03  1.65639749e-02
  3.29141139e-02  5.00746452e-02  5.00746452e-02  7.39040616e-02
  8.65456841e-02  8.65456882e-02  1.15377338e-01  1.15377338e-01
  1.28144970e-01  1.67359428e-01  1.86359264e-01  1.86359264e-01
  2.17852669e-01  2.68698924e-01  2.68698924e-01  2.80652439e-01
  2.80652467e-01  3.00991630e-01  3.00991677e-01  3.22649040e-01
  3.22649040e-01  3.38000436e-01  3.73809287e-01  3.73809287e-01
  4.25016142e-01  5.06679595e-01  5.33925826e-01  5.33926583e-01
  5.41710488e-01  5.41710488e-01  6.08689731e-01  6.77111905e-01
  6.77111905e-01  6.96058227e-01  6.96058246e-01  7.65176178e-01
  7.91274780e-01  7.91274780e-01  7.92677310e-01  7.92677310e-01
  8.03202331e-01  8.03202338e-01  8.73332496e-01  8.73332685e-01
  9.11675872e-01  9.19079907e-01  9.19079921e-01  9.37293741e-01
  9.37293741e-01  9.51767357e-01  9.51767357e-01  9.82302008e-01
  1.09991088e+00  1.09991088e+00  1.11476122e+00  1.47778216e+00
  1.47778216e+00  1.49285011e+00  1.52653169e+00  1.52653235e+00
  1.56789466e+00  1.56789466e+00  1.63275647e+00  1.73156392e+00
  1.73156516e+00  2.03455246e+00  2.03455246e+00  2.41028792e+00
  2.41028792e+00  2.51559690e+00  2.73470084e+00  2.73470084e+00
  2.86507718e+00  3.35322001e+00  3.76310726e+00  3.76315340e+00
  3.76874835e+00  3.76874835e+00  3.78229009e+00  3.78229009e+00
  3.78336842e+00  3.78656445e+00  3.78657717e+00  4.12949020e+00
  4.17584477e+00  4.17584477e+00  4.25763366e+00  4.25764539e+00
  4.32066757e+00  4.32536413e+00  4.32536413e+00  4.92571940e+00
  4.92584992e+00  4.95067574e+00  5.18113193e+00  5.18113193e+00
  1.12878792e+01  1.12878792e+01  1.14146183e+01  1.77816125e+01]
nelec by numeric integration = 7.999995691326626
    CPU time for vxc     13.54 sec, wall time      0.12 sec
    CPU time for df-vj      5.52 sec, wall time      0.05 sec
E1 = -27.49067969310214  Ecoul = 13.602359283834577  Exc = -2.7310179038821314
cycle= 2 E= -15.0502767761961  delta_E= 0.0844  |g|= 0.579  |ddm|= 1.76
    CPU time for cycle= 2     21.16 sec, wall time      0.19 sec
  HOMO = -0.18531165830126  LUMO = -0.0569318052875899
  mo_energy =
[-6.19244198e-01 -2.02736525e-01 -1.85311658e-01 -1.85311658e-01
 -5.69318053e-02 -1.20608930e-03 -1.20608930e-03  9.80509426e-03
  2.59571987e-02  4.44228773e-02  4.44228773e-02  6.34769905e-02
  7.83378414e-02  7.83378465e-02  9.94004728e-02  9.94004728e-02
  1.12349791e-01  1.57803672e-01  1.75723324e-01  1.75723324e-01
  2.03460139e-01  2.50404150e-01  2.50404150e-01  2.65756173e-01
  2.65756279e-01  2.86343143e-01  2.86343194e-01  3.13930862e-01
  3.13930862e-01  3.20894196e-01  3.51859165e-01  3.51859165e-01
  3.82808347e-01  4.58327884e-01  4.74550702e-01  4.74551632e-01
  4.84840779e-01  4.84840779e-01  5.69710660e-01  6.55442296e-01
  6.55442296e-01  6.87204032e-01  6.87204057e-01  7.42587247e-01
  7.43954750e-01  7.43954750e-01  7.79102614e-01  7.79102614e-01
  7.94290265e-01  7.94290277e-01  8.48540652e-01  8.48540849e-01
  8.94464200e-01  9.06702107e-01  9.06702127e-01  9.28342863e-01
  9.28342863e-01  9.37915472e-01  9.37915472e-01  9.52614901e-01
  1.06357987e+00  1.06357987e+00  1.06837230e+00  1.41208733e+00
  1.41208733e+00  1.42802126e+00  1.44055635e+00  1.44055708e+00
  1.48948133e+00  1.48948133e+00  1.53648680e+00  1.65428658e+00
  1.65428734e+00  1.96485589e+00  1.96485589e+00  2.39583348e+00
  2.39583348e+00  2.48364818e+00  2.63128591e+00  2.63128591e+00
  2.78592550e+00  3.25237512e+00  3.66894085e+00  3.66898814e+00
  3.67439735e+00  3.67439735e+00  3.68718562e+00  3.68718562e+00
  3.68904071e+00  3.69188132e+00  3.69189364e+00  4.03977167e+00
  4.05838456e+00  4.05838456e+00  4.14058760e+00  4.14059912e+00
  4.20826606e+00  4.20826606e+00  4.27952115e+00  4.79606756e+00
  4.79619442e+00  4.82411014e+00  5.05512791e+00  5.05512791e+00
  1.11346040e+01  1.11346040e+01  1.12614011e+01  1.76190338e+01]
nelec by numeric integration = 7.999996070465847
    CPU time for vxc     16.15 sec, wall time      0.14 sec
    CPU time for df-vj      5.05 sec, wall time      0.04 sec
E1 = -28.88259953186603  Ecoul = 15.155804955863008  Exc = -3.013164258508978
cycle= 3 E= -15.1708972975584  delta_E= -0.121  |g|= 0.047  |ddm|= 0.945
    CPU time for cycle= 3     22.70 sec, wall time      0.20 sec
  HOMO = -0.188552043504138  LUMO = -0.060943523190174
  mo_energy =
[-6.24054519e-01 -2.05281482e-01 -1.88552044e-01 -1.88552044e-01
 -6.09435232e-02 -3.69969634e-03 -3.69969634e-03  8.58957591e-03
  2.43902498e-02  4.26842480e-02  4.26842480e-02  6.19779147e-02
  7.54485165e-02  7.54485191e-02  9.72157196e-02  9.72157196e-02
  1.11283310e-01  1.55041851e-01  1.72292844e-01  1.72292844e-01
  2.00296476e-01  2.47624363e-01  2.47624363e-01  2.62259979e-01
  2.62260078e-01  2.82922092e-01  2.82922147e-01  3.09889103e-01
  3.09889103e-01  3.18168032e-01  3.49068458e-01  3.49068458e-01
  3.81255140e-01  4.54719660e-01  4.72089870e-01  4.72090822e-01
  4.81694176e-01  4.81694176e-01  5.69237535e-01  6.52054658e-01
  6.52054658e-01  6.81874055e-01  6.81874078e-01  7.37996988e-01
  7.41867127e-01  7.41867127e-01  7.74511036e-01  7.74511036e-01
  7.88979864e-01  7.88979878e-01  8.44628407e-01  8.44628615e-01
  8.90863472e-01  9.01648331e-01  9.01648355e-01  9.22460648e-01
  9.22460648e-01  9.33535732e-01  9.33535732e-01  9.50026757e-01
  1.05945200e+00  1.05945200e+00  1.06389523e+00  1.41151839e+00
  1.41151839e+00  1.42800017e+00  1.43761095e+00  1.43761166e+00
  1.48692614e+00  1.48692614e+00  1.53038704e+00  1.65184444e+00
  1.65184505e+00  1.96133632e+00  1.96133632e+00  2.39123132e+00
  2.39123132e+00  2.47970445e+00  2.62683552e+00  2.62683552e+00
  2.78438284e+00  3.24447385e+00  3.66624567e+00  3.66629291e+00
  3.67173664e+00  3.67173664e+00  3.68351147e+00  3.68351147e+00
  3.68589712e+00  3.68859442e+00  3.68860667e+00  4.03561183e+00
  4.05282462e+00  4.05282462e+00  4.13570387e+00  4.13571544e+00
  4.20337371e+00  4.20337371e+00  4.27450731e+00  4.78899352e+00
  4.78911964e+00  4.81630968e+00  5.04835492e+00  5.04835492e+00
  1.11250451e+01  1.11250451e+01  1.12523109e+01  1.76081994e+01]
nelec by numeric integration = 7.999995988853468
    CPU time for vxc     14.48 sec, wall time      0.13 sec
    CPU time for df-vj      4.74 sec, wall time      0.04 sec
E1 = -28.91871664634959  Ecoul = 15.199875670995215  Exc = -3.021585288986864
cycle= 4 E= -15.1713647273877  delta_E= -0.000467  |g|= 0.0207  |ddm|= 0.147
    CPU time for cycle= 4     21.49 sec, wall time      0.19 sec
  HOMO = -0.189851851571672  LUMO = -0.0616915850708873
  mo_energy =
[-6.25723172e-01 -2.06619856e-01 -1.89851852e-01 -1.89851852e-01
 -6.16915851e-02 -4.21762538e-03 -4.21762538e-03  8.35359536e-03
  2.39929229e-02  4.23656891e-02  4.23656891e-02  6.16401386e-02
  7.48430612e-02  7.48430634e-02  9.66364774e-02  9.66364774e-02
  1.10732006e-01  1.54527992e-01  1.71821215e-01  1.71821215e-01
  1.99772595e-01  2.46976086e-01  2.46976086e-01  2.61816457e-01
  2.61816555e-01  2.82143519e-01  2.82143576e-01  3.09095027e-01
  3.09095027e-01  3.17407346e-01  3.48220660e-01  3.48220660e-01
  3.80395912e-01  4.54238262e-01  4.70940590e-01  4.70941541e-01
  4.81002511e-01  4.81002511e-01  5.67770451e-01  6.51419937e-01
  6.51419937e-01  6.81212093e-01  6.81212117e-01  7.37273402e-01
  7.40533476e-01  7.40533476e-01  7.73943878e-01  7.73943878e-01
  7.88038936e-01  7.88038951e-01  8.43947770e-01  8.43947976e-01
  8.90058389e-01  9.01105568e-01  9.01105595e-01  9.21585054e-01
  9.21585054e-01  9.32617755e-01  9.32617755e-01  9.49152617e-01
  1.05886123e+00  1.05886123e+00  1.06354935e+00  1.41065055e+00
  1.41065055e+00  1.42690337e+00  1.43618821e+00  1.43618892e+00
  1.48582392e+00  1.48582392e+00  1.52936206e+00  1.65055456e+00
  1.65055515e+00  1.96027400e+00  1.96027400e+00  2.39095796e+00
  2.39095796e+00  2.47919808e+00  2.62490004e+00  2.62490004e+00
  2.78205223e+00  3.24362123e+00  3.66480229e+00  3.66484933e+00
  3.67040763e+00  3.67040763e+00  3.68258969e+00  3.68258969e+00
  3.68485375e+00  3.68751685e+00  3.68752905e+00  4.03356728e+00
  4.05060469e+00  4.05060469e+00  4.13338341e+00  4.13339500e+00
  4.20107833e+00  4.20107833e+00  4.27443583e+00  4.78651576e+00
  4.78664195e+00  4.81432366e+00  5.04605005e+00  5.04605005e+00
  1.11219813e+01  1.11219813e+01  1.12491820e+01  1.76050483e+01]
nelec by numeric integration = 7.999996034521719
    CPU time for vxc     14.15 sec, wall time      0.12 sec
    CPU time for df-vj      4.90 sec, wall time      0.04 sec
E1 = -28.93555150038088  Ecoul = 15.220479172132096  Exc = -3.0254891990030703
cycle= 5 E= -15.1714999902983  delta_E= -0.000135  |g|= 0.00474  |ddm|= 0.0245
    CPU time for cycle= 5     21.32 sec, wall time      0.19 sec
  HOMO = -0.191194663356447  LUMO = -0.0624939094316266
  mo_energy =
[-6.27308894e-01 -2.08040427e-01 -1.91194663e-01 -1.91194663e-01
 -6.24939094e-02 -4.73715553e-03 -4.73715553e-03  8.04074965e-03
  2.36183421e-02  4.20114430e-02  4.20114430e-02  6.12189455e-02
  7.42443716e-02  7.42443737e-02  9.60655705e-02  9.60655705e-02
  1.10195771e-01  1.53936745e-01  1.71170726e-01  1.71170726e-01
  1.99109758e-01  2.46182865e-01  2.46182865e-01  2.61091980e-01
  2.61092078e-01  2.81326054e-01  2.81326112e-01  3.08297054e-01
  3.08297054e-01  3.16630060e-01  3.47388550e-01  3.47388550e-01
  3.79385461e-01  4.53240755e-01  4.69799046e-01  4.69800002e-01
  4.79908951e-01  4.79908951e-01  5.66827382e-01  6.50564129e-01
  6.50564129e-01  6.80350431e-01  6.80350455e-01  7.36346093e-01
  7.39510145e-01  7.39510145e-01  7.73085173e-01  7.73085173e-01
  7.87076577e-01  7.87076592e-01  8.43025329e-01  8.43025534e-01
  8.89141576e-01  9.00207770e-01  9.00207798e-01  9.20604256e-01
  9.20604256e-01  9.31649624e-01  9.31649624e-01  9.48273380e-01
  1.05789154e+00  1.05789154e+00  1.06255629e+00  1.40949671e+00
  1.40949671e+00  1.42569437e+00  1.43480981e+00  1.43481053e+00
  1.48445194e+00  1.48445194e+00  1.52790679e+00  1.64933823e+00
  1.64933880e+00  1.95910679e+00  1.95910679e+00  2.39032936e+00
  2.39032936e+00  2.47842305e+00  2.62347053e+00  2.62347053e+00
  2.78083434e+00  3.24219271e+00  3.66336164e+00  3.66340843e+00
  3.66891862e+00  3.66891862e+00  3.68102715e+00  3.68102715e+00
  3.68329637e+00  3.68598401e+00  3.68599623e+00  4.03208620e+00
  4.04901008e+00  4.04901008e+00  4.13172910e+00  4.13174081e+00
  4.19938296e+00  4.19938296e+00  4.27379948e+00  4.78490275e+00
  4.78502903e+00  4.81266221e+00  5.04441286e+00  5.04441286e+00
  1.11202697e+01  1.11202697e+01  1.12474245e+01  1.76033207e+01]
nelec by numeric integration = 7.999996044090536
    CPU time for vxc     14.52 sec, wall time      0.13 sec
    CPU time for df-vj      4.97 sec, wall time      0.04 sec
E1 = -28.944663874853546  Ecoul = 15.231680669360099  Exc = -3.0275859193338848
cycle= 6 E= -15.1715075878738  delta_E= -7.6e-06  |g|= 0.000372  |ddm|= 0.0101
    CPU time for cycle= 6     21.89 sec, wall time      0.20 sec
  HOMO = -0.191316765286589  LUMO = -0.06258430361718
  mo_energy =
[-6.27443901e-01 -2.08144910e-01 -1.91316765e-01 -1.91316765e-01
 -6.25843036e-02 -4.79237410e-03 -4.79237410e-03  8.01084445e-03
  2.35821724e-02  4.19746447e-02  4.19746447e-02  6.11803576e-02
  7.41821080e-02  7.41821099e-02  9.60094147e-02  9.60094147e-02
  1.10148972e-01  1.53872491e-01  1.71098972e-01  1.71098972e-01
  1.99037505e-01  2.46101299e-01  2.46101299e-01  2.61011395e-01
  2.61011493e-01  2.81235734e-01  2.81235791e-01  3.08205912e-01
  3.08205912e-01  3.16551172e-01  3.47300934e-01  3.47300934e-01
  3.79305959e-01  4.53153202e-01  4.69690385e-01  4.69691337e-01
  4.79818549e-01  4.79818549e-01  5.66748643e-01  6.50473742e-01
  6.50473742e-01  6.80246309e-01  6.80246333e-01  7.36245454e-01
  7.39409271e-01  7.39409271e-01  7.72982366e-01  7.72982366e-01
  7.86960488e-01  7.86960503e-01  8.42921790e-01  8.42921994e-01
  8.89043260e-01  9.00101143e-01  9.00101172e-01  9.20484942e-01
  9.20484942e-01  9.31540993e-01  9.31540993e-01  9.48186352e-01
  1.05779109e+00  1.05779109e+00  1.06245680e+00  1.40939161e+00
  1.40939161e+00  1.42560231e+00  1.43469400e+00  1.43469469e+00
  1.48435103e+00  1.48435103e+00  1.52779432e+00  1.64922258e+00
  1.64922316e+00  1.95899854e+00  1.95899854e+00  2.39024818e+00
  2.39024818e+00  2.47834506e+00  2.62333838e+00  2.62333838e+00
  2.78072926e+00  3.24206196e+00  3.66322545e+00  3.66327223e+00
  3.66879253e+00  3.66879253e+00  3.68091145e+00  3.68091145e+00
  3.68318283e+00  3.68586437e+00  3.68587653e+00  4.03196440e+00
  4.04885535e+00  4.04885535e+00  4.13158738e+00  4.13159900e+00
  4.19924926e+00  4.19924926e+00  4.27372611e+00  4.78474476e+00
  4.78487106e+00  4.81252291e+00  5.04426683e+00  5.04426683e+00
  1.11201019e+01  1.11201019e+01  1.12472659e+01  1.76031512e+01]
nelec by numeric integration = 7.999996044221144
    CPU time for vxc     14.20 sec, wall time      0.13 sec
    CPU time for df-vj      5.65 sec, wall time      0.05 sec
E1 = -28.945322251955055  Ecoul = 15.232493739420784  Exc = -3.027740654834417
cycle= 7 E= -15.1715076304151  delta_E= -4.25e-08  |g|= 2.33e-05  |ddm|= 0.0012
    CPU time for cycle= 7     22.42 sec, wall time      0.21 sec
  HOMO = -0.191323067088982  LUMO = -0.0625946626738183
  mo_energy =
[-6.27451726e-01 -2.08152990e-01 -1.91323067e-01 -1.91323067e-01
 -6.25946627e-02 -4.79679526e-03 -4.79679526e-03  8.00940944e-03
  2.35798419e-02  4.19718514e-02  4.19718514e-02  6.11772330e-02
  7.41776527e-02  7.41776546e-02  9.60058521e-02  9.60058521e-02
  1.10145972e-01  1.53866197e-01  1.71092725e-01  1.71092725e-01
  1.99030721e-01  2.46093189e-01  2.46093189e-01  2.61005515e-01
  2.61005613e-01  2.81226298e-01  2.81226355e-01  3.08196879e-01
  3.08196879e-01  3.16542705e-01  3.47292535e-01  3.47292535e-01
  3.79299281e-01  4.53146707e-01  4.69683290e-01  4.69684241e-01
  4.79812336e-01  4.79812336e-01  5.66740932e-01  6.50465089e-01
  6.50465089e-01  6.80235351e-01  6.80235375e-01  7.36234422e-01
  7.39401041e-01  7.39401041e-01  7.72971660e-01  7.72971660e-01
  7.86947437e-01  7.86947453e-01  8.42911911e-01  8.42912115e-01
  8.89031941e-01  9.00089418e-01  9.00089447e-01  9.20471539e-01
  9.20471539e-01  9.31527824e-01  9.31527824e-01  9.48178144e-01
  1.05778236e+00  1.05778236e+00  1.06244942e+00  1.40938619e+00
  1.40938619e+00  1.42559514e+00  1.43468703e+00  1.43468772e+00
  1.48434332e+00  1.48434332e+00  1.52778628e+00  1.64921592e+00
  1.64921650e+00  1.95899141e+00  1.95899141e+00  2.39024144e+00
  2.39024144e+00  2.47833875e+00  2.62333103e+00  2.62333103e+00
  2.78071993e+00  3.24205486e+00  3.66321938e+00  3.66326616e+00
  3.66878559e+00  3.66878559e+00  3.68090349e+00  3.68090349e+00
  3.68317477e+00  3.68585681e+00  3.68586896e+00  4.03195587e+00
  4.04884817e+00  4.04884817e+00  4.13157892e+00  4.13159054e+00
  4.19924000e+00  4.19924000e+00  4.27372241e+00  4.78473669e+00
  4.78486299e+00  4.81251371e+00  5.04425789e+00  5.04425789e+00
  1.11200924e+01  1.11200924e+01  1.12472556e+01  1.76031411e+01]
nelec by numeric integration = 7.999996044281389
    CPU time for vxc     15.39 sec, wall time      0.14 sec
    CPU time for df-vj      4.77 sec, wall time      0.04 sec
E1 = -28.945349577619112  Ecoul = 15.232527667217237  Exc = -3.027747257150033
cycle= 8 E= -15.1715076305983  delta_E= -1.83e-10  |g|= 1.53e-06  |ddm|= 5.27e-05
    CPU time for cycle= 8     22.49 sec, wall time      0.20 sec
  HOMO = -0.191323490965087  LUMO = -0.062595265499624
  mo_energy =
[-6.27452228e-01 -2.08153377e-01 -1.91323491e-01 -1.91323491e-01
 -6.25952655e-02 -4.79691620e-03 -4.79691620e-03  8.00946454e-03
  2.35798005e-02  4.19717455e-02  4.19717455e-02  6.11771069e-02
  7.41776291e-02  7.41776310e-02  9.60058222e-02  9.60058222e-02
  1.10145908e-01  1.53865901e-01  1.71092573e-01  1.71092573e-01
  1.99030464e-01  2.46092753e-01  2.46092753e-01  2.61005434e-01
  2.61005531e-01  2.81225738e-01  2.81225795e-01  3.08196520e-01
  3.08196520e-01  3.16542172e-01  3.47292056e-01  3.47292056e-01
  3.79298965e-01  4.53146488e-01  4.69682831e-01  4.69683781e-01
  4.79812038e-01  4.79812038e-01  5.66740449e-01  6.50464680e-01
  6.50464680e-01  6.80234960e-01  6.80234984e-01  7.36233843e-01
  7.39400570e-01  7.39400570e-01  7.72971162e-01  7.72971162e-01
  7.86946834e-01  7.86946849e-01  8.42911412e-01  8.42911616e-01
  8.89031233e-01  9.00088853e-01  9.00088882e-01  9.20470976e-01
  9.20470976e-01  9.31526988e-01  9.31526988e-01  9.48177762e-01
  1.05778201e+00  1.05778201e+00  1.06244917e+00  1.40938577e+00
  1.40938577e+00  1.42559472e+00  1.43468651e+00  1.43468720e+00
  1.48434283e+00  1.48434283e+00  1.52778591e+00  1.64921553e+00
  1.64921611e+00  1.95899111e+00  1.95899111e+00  2.39024135e+00
  2.39024135e+00  2.47833855e+00  2.62333050e+00  2.62333050e+00
  2.78071933e+00  3.24205450e+00  3.66321887e+00  3.66326565e+00
  3.66878511e+00  3.66878511e+00  3.68090307e+00  3.68090307e+00
  3.68317434e+00  3.68585637e+00  3.68586852e+00  4.03195540e+00
  4.04884758e+00  4.04884758e+00  4.13157833e+00  4.13158994e+00
  4.19923941e+00  4.19923941e+00  4.27372260e+00  4.78473606e+00
  4.78486236e+00  4.81251319e+00  5.04425732e+00  5.04425732e+00
  1.11200917e+01  1.11200917e+01  1.12472548e+01  1.76031404e+01]
nelec by numeric integration = 7.999996044297409
    CPU time for vxc     15.01 sec, wall time      0.13 sec
    CPU time for df-vj      4.80 sec, wall time      0.04 sec
E1 = -28.945353853803564  Ecoul = 15.232532932246775  Exc = -3.0277482459947325
Extra cycle  E= -15.1715076305979  delta_E= 3.87e-13  |g|= 1.99e-06  |ddm|= 5.94e-06
    CPU time for scf_cycle    265.38 sec, wall time      2.48 sec
    CPU time for SCF    265.38 sec, wall time      2.48 sec
converged SCF energy = -15.1715076305979
