#INFO: **** input file is /home/nkousuke/lustre/toBeSync/turboRVB/05turbo-genius-development/turbogenius_paper/04data/sanity_checks/03pyscf_HF_turbo_VMC_via_trexio/00open_boundary/results/K2/pyscf-HF-workflow/run.py ****

from pyscf_wrapper import Pyscf_wrapper

# input variables
pyscf_chkfile="pyscf.chk"
structure_file="K2.xyz"

# input variables
omp_num_threads=128
charge=0
spin=0
basis="ccecp-ccpvqz"
ecp="ccecp"
scf_method="HF"
dft_xc="NA"
solver_newton=False
MP2_flag=False
CCSD_flag=False
pyscf_output="out.pyscf"
twist_average=False
exp_to_discard=0.0
kpt=[0.0, 0.0, 0.0]
kpt_grid=[1, 1, 1]
smearing_method="fermi"
smearing_sigma=0.0

pyscf_calc=Pyscf_wrapper(
                        structure_file=structure_file,
                        chkfile=pyscf_chkfile,
                        )

pyscf_calc.run_pyscf(
                  omp_num_threads=omp_num_threads,
                  charge=charge,
                  spin=spin,
                  basis=basis,
                  ecp=ecp,
                  scf_method=scf_method,
                  dft_xc=dft_xc,
                  solver_newton=solver_newton,
                  MP2_flag=MP2_flag,
                  CCSD_flag=CCSD_flag,
                  pyscf_output=pyscf_output,
                  twist_average=twist_average,
                  exp_to_discard=exp_to_discard,
                  kpt=kpt,
                  kpt_grid=kpt_grid,
                  smearing_method=smearing_method,
                  smearing_sigma=smearing_sigma
                  )
                #INFO: ******************** input file end ********************


System: uname_result(system='Linux', node='spcc-145', release='5.4.0-66-generic', version='#74-Ubuntu SMP Wed Jan 27 22:54:38 UTC 2021', machine='x86_64', processor='x86_64')  Threads 128
Python 3.7.3 (default, Mar 27 2019, 22:11:17) 
[GCC 7.3.0]
numpy 1.20.1  scipy 1.7.3
Date: Mon Dec 19 18:04:23 2022
PySCF version 2.0.1
PySCF path  /home/nkousuke/application/anaconda3/lib/python3.7/site-packages/pyscf

[CONFIG] conf_file /home/nkousuke/.pyscf_conf.py
[INPUT] verbose = 5
[INPUT] max_memory = 506579.18359375 
[INPUT] num. atoms = 2
[INPUT] num. electrons = 18
[INPUT] charge = 0
[INPUT] spin (= nelec alpha-beta = 2S) = 0
[INPUT] symmetry False subgroup None
[INPUT] Mole.unit = A
[INPUT]  1 K      0.000000000000   0.000000000000   2.093500000000 AA    0.000000000000   0.000000000000   3.956141641777 Bohr
[INPUT]  2 K      0.000000000000   0.000000000000  -2.093500000000 AA    0.000000000000   0.000000000000  -3.956141641777 Bohr
[INPUT] ---------------- BASIS SET ---------------- 
[INPUT] l, kappa, [nprim/nctr], expnt,             c_1 c_2 ...
[INPUT] K
[INPUT] 0    0    [13   /1   ]  33.190598         0.0009346
                                17.266513         -0.0174608
                                8.982438          0.1529984
                                4.672871          -0.3405068
                                2.430935          -0.2286344
                                1.264628          0.2267298
                                0.657889          0.5491042
                                0.342249          0.4231045
                                0.178046          0.0910408
                                0.092623          0.0034552
                                0.048185          -0.0002837
                                0.025067          0.0005546
                                0.01304           3.1e-06
[INPUT] 0    0    [13   /1   ]  33.190598         -0.0001355
                                17.266513         0.0032758
                                8.982438          -0.0312755
                                4.672871          0.073045
                                2.430935          0.0490517
                                1.264628          -0.0532027
                                0.657889          -0.1367816
                                0.342249          -0.1662998
                                0.178046          -0.1546974
                                0.092623          0.0017898
                                0.048185          0.40887
                                0.025067          0.5671515
                                0.01304           0.1842076
[INPUT] 0    0    [1    /1   ]  0.150724             1
[INPUT] 0    0    [1    /1   ]  0.06905              1
[INPUT] 0    0    [1    /1   ]  0.031633             1
[INPUT] 0    0    [1    /1   ]  0.014492             1
[INPUT] 1    0    [12   /1   ]  25.955983         5.31e-05
                                12.863527         0.0035974
                                6.375036          -0.0405858
                                3.159405          -0.0422076
                                1.56577           0.2096577
                                0.77598           0.3950945
                                0.384568          0.3750436
                                0.190588          0.1568248
                                0.094453          0.0196694
                                0.04681           0.0012538
                                0.023199          0.0002905
                                0.011497          -9.8e-06
[INPUT] 1    0    [12   /1   ]  25.955983         -1.13e-05
                                12.863527         -0.0005013
                                6.375036          0.0060108
                                3.159405          0.0057055
                                1.56577           -0.0328898
                                0.77598           -0.0591252
                                0.384568          -0.0679803
                                0.190588          -0.0485253
                                0.094453          0.021828
                                0.04681           0.2782765
                                0.023199          0.4864044
                                0.011497          0.3183272
[INPUT] 1    0    [1    /1   ]  0.071025             1
[INPUT] 1    0    [1    /1   ]  0.035889             1
[INPUT] 1    0    [1    /1   ]  0.018135             1
[INPUT] 1    0    [1    /1   ]  0.009164             1
[INPUT] 2    0    [11   /1   ]  25.002828         2.86e-05
                                10.959775         -0.0003019
                                4.804124          0.0048298
                                2.105846          0.014022
                                0.92308           0.0258914
                                0.404624          0.0360544
                                0.177364          0.0486273
                                0.077746          0.1024295
                                0.034079          0.2811401
                                0.014938          0.512389
                                0.006548          0.2526561
[INPUT] 2    0    [1    /1   ]  0.063256             1
[INPUT] 2    0    [1    /1   ]  0.023163             1
[INPUT] 2    0    [1    /1   ]  0.008482             1
[INPUT] 3    0    [1    /1   ]  0.123997             1
[INPUT] 3    0    [1    /1   ]  0.062758             1
[INPUT] 4    0    [1    /1   ]  0.011607             1

nuclear repulsion = 10.2372472138811
number of shells = 38
number of NR pGTOs = 414
number of NR cGTOs = 134
basis = ccecp-ccpvqz
ecp = ccecp
CPU time:         5.14


******** <class 'pyscf.scf.hf.RHF'> ********
method = RHF
initial guess = minao
damping factor = 0
level_shift factor = 0
DIIS = <class 'pyscf.scf.diis.CDIIS'>
diis_start_cycle = 1
diis_space = 8
SCF conv_tol = 1e-09
SCF conv_tol_grad = None
SCF max_cycles = 200
direct_scf = True
direct_scf_tol = 1e-13
chkfile to save SCF result = pyscf.chk
max_memory 506579 MB (current use 106 MB)
Set gradient conv threshold to 3.16228e-05
E1 = -113.28508905571658  E_coul = 47.226705875586546
init E= -55.821135966249
cond(S) = 333973.2314152785
    CPU time for initialize scf    257.61 sec, wall time      3.61 sec
  HOMO = -0.107582125407411  LUMO = -0.025624005345906
  mo_energy =
[-1.78782835e+00 -1.78756960e+00 -9.60494811e-01 -9.57421706e-01
 -9.57421706e-01 -9.56968217e-01 -9.56968217e-01 -9.56837547e-01
 -1.07582125e-01 -2.56240053e-02  9.52546001e-03  9.52546001e-03
  1.30346181e-02  1.81934089e-02  1.81934089e-02  2.05375979e-02
  2.26251346e-02  2.53114071e-02  2.53114071e-02  3.15611117e-02
  3.16271641e-02  3.16271641e-02  3.37942667e-02  3.37942667e-02
  4.05310746e-02  4.05310746e-02  4.06390579e-02  4.06390579e-02
  4.83019618e-02  5.21940826e-02  5.38737255e-02  5.38737255e-02
  5.39441714e-02  5.39441714e-02  5.76250605e-02  5.76250605e-02
  6.18768275e-02  6.18768275e-02  6.46212914e-02  6.84502788e-02
  6.94633357e-02  6.94633357e-02  7.06655693e-02  7.06655693e-02
  7.13351308e-02  7.13351308e-02  7.33208748e-02  7.33208748e-02
  7.49990827e-02  7.74892019e-02  7.74892019e-02  8.14007299e-02
  8.14007299e-02  8.76755855e-02  8.76755855e-02  8.89875521e-02
  1.00139870e-01  1.00139870e-01  1.17249230e-01  1.25503947e-01
  1.25503947e-01  1.25839185e-01  1.25839185e-01  1.33638139e-01
  1.47036155e-01  1.62041507e-01  1.62041507e-01  1.69090013e-01
  1.84772099e-01  1.93785957e-01  1.93785957e-01  2.01629287e-01
  2.01629287e-01  2.19539796e-01  2.19539796e-01  2.27194158e-01
  2.27194158e-01  2.38151587e-01  2.38151587e-01  2.40873173e-01
  2.40873173e-01  2.61071856e-01  2.62299390e-01  2.62299390e-01
  2.94415952e-01  2.96971440e-01  2.96971440e-01  3.00820894e-01
  3.11316240e-01  3.12033000e-01  3.12033000e-01  3.25305906e-01
  3.25305906e-01  3.26369085e-01  3.47203135e-01  3.47203135e-01
  3.49125405e-01  3.71115176e-01  3.71115176e-01  4.32501098e-01
  4.34221151e-01  4.34221151e-01  4.46207445e-01  4.46207445e-01
  4.61960470e-01  4.61960470e-01  5.38735338e-01  5.38735338e-01
  5.58758475e-01  6.05816213e-01  6.05816213e-01  6.15869945e-01
  6.15869945e-01  6.23360592e-01  6.23360592e-01  6.40157523e-01
  6.40157523e-01  6.45289105e-01  6.52232095e-01  6.71684128e-01
  6.71684128e-01  7.32790937e-01  7.32790937e-01  7.52246172e-01
  8.58589394e-01  9.52326812e-01  9.86613906e-01  9.86613906e-01
  1.16265199e+00  1.29039892e+00  1.29039892e+00  1.36611922e+00
  2.99364573e+01  3.00260181e+01]
E1 = -113.41985957139177  E_coul = 47.31904681412702
cycle= 1 E= -55.8635655433837  delta_E= -0.0424  |g|= 0.0453  |ddm|= 1.74
    CPU time for cycle= 1     44.61 sec, wall time      0.35 sec
  HOMO = -0.130709634476875  LUMO = -0.00489634761477573
  mo_energy =
[-1.77969070e+00 -1.77958955e+00 -9.51205971e-01 -9.50470876e-01
 -9.50470876e-01 -9.50130755e-01 -9.50130755e-01 -9.48977003e-01
 -1.30709634e-01 -4.89634761e-03  1.10840126e-02  1.10840126e-02
  1.29606438e-02  1.77026233e-02  1.77026233e-02  2.02886235e-02
  2.42759096e-02  2.68725685e-02  2.68725685e-02  3.14382676e-02
  3.19635452e-02  3.19635452e-02  3.35942678e-02  3.35942678e-02
  4.12003622e-02  4.12003622e-02  4.27531207e-02  4.27531207e-02
  4.86142456e-02  5.09070799e-02  5.25060810e-02  5.25060810e-02
  5.31790299e-02  5.31790299e-02  5.77645867e-02  5.77645867e-02
  6.36648923e-02  6.36648923e-02  6.38864145e-02  6.95078769e-02
  6.95078769e-02  7.08941771e-02  7.08941771e-02  7.22122963e-02
  7.35972899e-02  7.35972899e-02  7.39396398e-02  7.39396398e-02
  7.48810823e-02  8.23246617e-02  8.23246617e-02  8.24163194e-02
  8.24163194e-02  9.07815275e-02  9.07815275e-02  9.17509858e-02
  1.01482988e-01  1.01482988e-01  1.20009559e-01  1.26070102e-01
  1.26070102e-01  1.29331125e-01  1.29331125e-01  1.34952500e-01
  1.44416068e-01  1.64420000e-01  1.64420000e-01  1.72127894e-01
  1.94024530e-01  2.02604566e-01  2.02604566e-01  2.10442174e-01
  2.10442174e-01  2.24382112e-01  2.24382112e-01  2.33975722e-01
  2.33975722e-01  2.43442881e-01  2.43442881e-01  2.44929969e-01
  2.44929969e-01  2.65186135e-01  2.66471147e-01  2.66471147e-01
  2.93541964e-01  2.98891719e-01  2.98891719e-01  3.02594807e-01
  3.13581161e-01  3.13581161e-01  3.14002618e-01  3.29760893e-01
  3.30130434e-01  3.30130434e-01  3.45190302e-01  3.45190302e-01
  3.49321705e-01  3.78831387e-01  3.78831387e-01  4.39981417e-01
  4.39981417e-01  4.44011383e-01  4.54286690e-01  4.54286690e-01
  4.68431786e-01  4.68431786e-01  5.46161563e-01  5.46161563e-01
  5.66665364e-01  6.16188854e-01  6.16188854e-01  6.24425631e-01
  6.24425631e-01  6.29810576e-01  6.29810576e-01  6.46490783e-01
  6.46490783e-01  6.52278681e-01  6.63173972e-01  6.79619056e-01
  6.79619056e-01  7.39797713e-01  7.39797713e-01  7.61461787e-01
  8.64141929e-01  9.52168171e-01  9.91932836e-01  9.91932836e-01
  1.17309308e+00  1.29670323e+00  1.29670323e+00  1.37940790e+00
  2.99425804e+01  3.00321048e+01]
E1 = -113.44661935285059  E_coul = 47.34459888998539
cycle= 2 E= -55.8647732489841  delta_E= -0.00121  |g|= 0.0127  |ddm|= 0.654
    CPU time for cycle= 2     96.82 sec, wall time      0.79 sec
  HOMO = -0.13161669342177  LUMO = -0.00289231672059036
  mo_energy =
[-1.77670505e+00 -1.77660173e+00 -9.48420610e-01 -9.47745079e-01
 -9.47745079e-01 -9.47406756e-01 -9.47406756e-01 -9.46202803e-01
 -1.31616693e-01 -2.89231672e-03  1.15063823e-02  1.15063823e-02
  1.26831575e-02  1.76548270e-02  1.76548270e-02  2.04607545e-02
  2.46326608e-02  2.71463696e-02  2.71463696e-02  3.15672624e-02
  3.19556761e-02  3.19556761e-02  3.35670038e-02  3.35670038e-02
  4.14300187e-02  4.14300187e-02  4.32688568e-02  4.32688568e-02
  4.84188993e-02  5.07260223e-02  5.23762049e-02  5.23762049e-02
  5.30745425e-02  5.30745425e-02  5.77976698e-02  5.77976698e-02
  6.37689366e-02  6.39797940e-02  6.39797940e-02  6.95345005e-02
  6.95345005e-02  7.09417812e-02  7.09417812e-02  7.29633488e-02
  7.39878970e-02  7.39878970e-02  7.40483826e-02  7.40483826e-02
  7.49292310e-02  8.27307868e-02  8.27307868e-02  8.32936881e-02
  8.32936881e-02  9.10597766e-02  9.10597766e-02  9.25329004e-02
  1.01912462e-01  1.01912462e-01  1.20182810e-01  1.26332033e-01
  1.26332033e-01  1.30270447e-01  1.30270447e-01  1.35343484e-01
  1.44951104e-01  1.65154873e-01  1.65154873e-01  1.72295135e-01
  1.94767938e-01  2.03817328e-01  2.03817328e-01  2.11919664e-01
  2.11919664e-01  2.25718387e-01  2.25718387e-01  2.35148724e-01
  2.35148724e-01  2.44566600e-01  2.44566600e-01  2.46227866e-01
  2.46227866e-01  2.66896707e-01  2.67357455e-01  2.67357455e-01
  2.95190057e-01  2.99676818e-01  2.99676818e-01  3.04141871e-01
  3.14254959e-01  3.14254959e-01  3.14888192e-01  3.29871094e-01
  3.31302245e-01  3.31302245e-01  3.45993431e-01  3.45993431e-01
  3.50371927e-01  3.80045599e-01  3.80045599e-01  4.42071696e-01
  4.42071696e-01  4.45473352e-01  4.56613007e-01  4.56613007e-01
  4.70563390e-01  4.70563390e-01  5.48059089e-01  5.48059089e-01
  5.68548356e-01  6.17651437e-01  6.17651437e-01  6.26011795e-01
  6.26011795e-01  6.31211993e-01  6.31211993e-01  6.47826521e-01
  6.47826521e-01  6.52790983e-01  6.64721064e-01  6.81115410e-01
  6.81115410e-01  7.41373543e-01  7.41373543e-01  7.62540026e-01
  8.66866404e-01  9.56839387e-01  9.93657443e-01  9.93657443e-01
  1.17430633e+00  1.29875778e+00  1.29875778e+00  1.37962682e+00
  2.99465627e+01  3.00361267e+01]
E1 = -113.50241044365178  E_coul = 47.400111218049226
cycle= 3 E= -55.8650520117215  delta_E= -0.000279  |g|= 0.0119  |ddm|= 0.48
    CPU time for cycle= 3     40.96 sec, wall time      0.32 sec
  HOMO = -0.129768211312114  LUMO = -0.00261672262796017
  mo_energy =
[-1.77470316e+00 -1.77460314e+00 -9.46249434e-01 -9.45788236e-01
 -9.45788236e-01 -9.45452553e-01 -9.45452553e-01 -9.44046334e-01
 -1.29768211e-01 -2.61672263e-03  1.19349204e-02  1.19349204e-02
  1.26819893e-02  1.76003171e-02  1.76003171e-02  2.04373961e-02
  2.46312565e-02  2.73429934e-02  2.73429934e-02  3.15448511e-02
  3.21191386e-02  3.21191386e-02  3.35484623e-02  3.35484623e-02
  4.15076986e-02  4.15076986e-02  4.38278694e-02  4.38278694e-02
  4.84114511e-02  5.06013819e-02  5.22124940e-02  5.22124940e-02
  5.30033968e-02  5.30033968e-02  5.78259783e-02  5.78259783e-02
  6.36863585e-02  6.41916360e-02  6.41916360e-02  6.95584698e-02
  6.95584698e-02  7.09783542e-02  7.09783542e-02  7.35579818e-02
  7.41255263e-02  7.41255263e-02  7.42646311e-02  7.42646311e-02
  7.49567746e-02  8.28607734e-02  8.28607734e-02  8.41411614e-02
  8.41411614e-02  9.18111320e-02  9.18111320e-02  9.26995317e-02
  1.02186533e-01  1.02186533e-01  1.20590922e-01  1.26445511e-01
  1.26445511e-01  1.30933941e-01  1.30933941e-01  1.35630718e-01
  1.44591623e-01  1.65526742e-01  1.65526742e-01  1.72952472e-01
  1.96720581e-01  2.05653228e-01  2.05653228e-01  2.13574728e-01
  2.13574728e-01  2.26798656e-01  2.26798656e-01  2.36347288e-01
  2.36347288e-01  2.45727919e-01  2.45727919e-01  2.47153943e-01
  2.47153943e-01  2.67471498e-01  2.68149994e-01  2.68149994e-01
  2.94751096e-01  3.00318120e-01  3.00318120e-01  3.04797133e-01
  3.14779970e-01  3.14779970e-01  3.15863399e-01  3.30953640e-01
  3.32390415e-01  3.32390415e-01  3.46126865e-01  3.46126865e-01
  3.50964376e-01  3.81771940e-01  3.81771940e-01  4.43654130e-01
  4.43654130e-01  4.48168843e-01  4.58583187e-01  4.58583187e-01
  4.72244191e-01  4.72244191e-01  5.49830196e-01  5.49830196e-01
  5.70467681e-01  6.20000289e-01  6.20000289e-01  6.27937771e-01
  6.27937771e-01  6.32745852e-01  6.32745852e-01  6.49362065e-01
  6.49362065e-01  6.54921850e-01  6.67184298e-01  6.82983969e-01
  6.82983969e-01  7.43152751e-01  7.43152751e-01  7.64947207e-01
  8.68079232e-01  9.56500269e-01  9.95124080e-01  9.95124080e-01
  1.17702461e+00  1.30043848e+00  1.30043848e+00  1.38304196e+00
  2.99482443e+01  3.00377939e+01]
E1 = -113.4950260953254  E_coul = 47.39268332681314
cycle= 4 E= -55.8650955546312  delta_E= -4.35e-05  |g|= 0.000499  |ddm|= 0.161
    CPU time for cycle= 4     82.06 sec, wall time      0.64 sec
  HOMO = -0.129820356984101  LUMO = -0.00263180837324698
  mo_energy =
[-1.77512866e+00 -1.77502849e+00 -9.46655826e-01 -9.46175135e-01
 -9.46175135e-01 -9.45839056e-01 -9.45839056e-01 -9.44450348e-01
 -1.29820357e-01 -2.63180837e-03  1.19131625e-02  1.19131625e-02
  1.26620994e-02  1.75950026e-02  1.75950026e-02  2.04299067e-02
  2.46061865e-02  2.73472567e-02  2.73472567e-02  3.15429173e-02
  3.20983000e-02  3.20983000e-02  3.35464415e-02  3.35464415e-02
  4.15001596e-02  4.15001596e-02  4.38063133e-02  4.38063133e-02
  4.83541418e-02  5.05893965e-02  5.22010446e-02  5.22010446e-02
  5.29979594e-02  5.29979594e-02  5.78262990e-02  5.78262990e-02
  6.36802599e-02  6.42013146e-02  6.42013146e-02  6.95550930e-02
  6.95550930e-02  7.09780716e-02  7.09780716e-02  7.35456999e-02
  7.41293202e-02  7.41293202e-02  7.42723324e-02  7.42723324e-02
  7.49169009e-02  8.28391625e-02  8.28391625e-02  8.41143523e-02
  8.41143523e-02  9.17498765e-02  9.17498765e-02  9.26817681e-02
  1.02169277e-01  1.02169277e-01  1.20519333e-01  1.26430555e-01
  1.26430555e-01  1.30909828e-01  1.30909828e-01  1.35605337e-01
  1.44560406e-01  1.65488562e-01  1.65488562e-01  1.72882747e-01
  1.96556757e-01  2.05504014e-01  2.05504014e-01  2.13459930e-01
  2.13459930e-01  2.26686211e-01  2.26686211e-01  2.36308705e-01
  2.36308705e-01  2.45661661e-01  2.45661661e-01  2.47027721e-01
  2.47027721e-01  2.67392512e-01  2.68120830e-01  2.68120830e-01
  2.94666945e-01  3.00257157e-01  3.00257157e-01  3.04705250e-01
  3.14727053e-01  3.14727053e-01  3.15759061e-01  3.30851809e-01
  3.32305487e-01  3.32305487e-01  3.46008582e-01  3.46008582e-01
  3.50828402e-01  3.81652911e-01  3.81652911e-01  4.43387339e-01
  4.43387339e-01  4.47895357e-01  4.58282683e-01  4.58282683e-01
  4.71974748e-01  4.71974748e-01  5.49583064e-01  5.49583064e-01
  5.70194706e-01  6.19821885e-01  6.19821885e-01  6.27791668e-01
  6.27791668e-01  6.32637978e-01  6.32637978e-01  6.49252507e-01
  6.49252507e-01  6.54670888e-01  6.66994309e-01  6.82833514e-01
  6.82833514e-01  7.42983454e-01  7.42983454e-01  7.64736080e-01
  8.67867864e-01  9.56328120e-01  9.94913130e-01  9.94913130e-01
  1.17672153e+00  1.30019553e+00  1.30019553e+00  1.38274121e+00
  2.99475823e+01  3.00371295e+01]
E1 = -113.49532985067411  E_coul = 47.392986792644294
cycle= 5 E= -55.8650958441488  delta_E= -2.9e-07  |g|= 0.000278  |ddm|= 0.0172
    CPU time for cycle= 5     36.32 sec, wall time      0.30 sec
  HOMO = -0.12981965816717  LUMO = -0.00265373298764202
  mo_energy =
[-1.77510467e+00 -1.77500447e+00 -9.46644777e-01 -9.46154804e-01
 -9.46154804e-01 -9.45818625e-01 -9.45818625e-01 -9.44439673e-01
 -1.29819658e-01 -2.65373299e-03  1.19047251e-02  1.19047251e-02
  1.26613448e-02  1.75923449e-02  1.75923449e-02  2.04271865e-02
  2.45902488e-02  2.73495681e-02  2.73495681e-02  3.15406221e-02
  3.20912580e-02  3.20912580e-02  3.35457075e-02  3.35457075e-02
  4.14959126e-02  4.14959126e-02  4.38002602e-02  4.38002602e-02
  4.83461155e-02  5.05848150e-02  5.21946450e-02  5.21946450e-02
  5.29954051e-02  5.29954051e-02  5.78268745e-02  5.78268745e-02
  6.36772130e-02  6.42060082e-02  6.42060082e-02  6.95538989e-02
  6.95538989e-02  7.09780813e-02  7.09780813e-02  7.35459094e-02
  7.41314912e-02  7.41314912e-02  7.42760825e-02  7.42760825e-02
  7.49011727e-02  8.28289975e-02  8.28289975e-02  8.41080199e-02
  8.41080199e-02  9.17374978e-02  9.17374978e-02  9.26710651e-02
  1.02164203e-01  1.02164203e-01  1.20506441e-01  1.26424206e-01
  1.26424206e-01  1.30903008e-01  1.30903008e-01  1.35598367e-01
  1.44540195e-01  1.65474584e-01  1.65474584e-01  1.72868991e-01
  1.96538032e-01  2.05477267e-01  2.05477267e-01  2.13443396e-01
  2.13443396e-01  2.26668601e-01  2.26668601e-01  2.36298359e-01
  2.36298359e-01  2.45639735e-01  2.45639735e-01  2.47000423e-01
  2.47000423e-01  2.67363140e-01  2.68112927e-01  2.68112927e-01
  2.94624865e-01  3.00234297e-01  3.00234297e-01  3.04684339e-01
  3.14709351e-01  3.14709351e-01  3.15730035e-01  3.30837545e-01
  3.32286134e-01  3.32286134e-01  3.45985027e-01  3.45985027e-01
  3.50802386e-01  3.81636049e-01  3.81636049e-01  4.43397803e-01
  4.43397803e-01  4.47878793e-01  4.58283446e-01  4.58283446e-01
  4.71986091e-01  4.71986091e-01  5.49583778e-01  5.49583778e-01
  5.70193135e-01  6.19775499e-01  6.19775499e-01  6.27752713e-01
  6.27752713e-01  6.32615021e-01  6.32615021e-01  6.49229968e-01
  6.49229968e-01  6.54674600e-01  6.66945589e-01  6.82794540e-01
  6.82794540e-01  7.42935001e-01  7.42935001e-01  7.64700114e-01
  8.67842863e-01  9.56268556e-01  9.94907752e-01  9.94907752e-01
  1.17671060e+00  1.30018930e+00  1.30018930e+00  1.38274504e+00
  2.99477063e+01  3.00372540e+01]
E1 = -113.49412981214391  E_coul = 47.3917866656141
cycle= 6 E= -55.8650959326488  delta_E= -8.85e-08  |g|= 3.08e-05  |ddm|= 0.00847
    CPU time for cycle= 6     76.97 sec, wall time      0.61 sec
  HOMO = -0.129821558914766  LUMO = -0.00265570220503592
  mo_energy =
[-1.77514371e+00 -1.77504353e+00 -9.46680854e-01 -9.46190838e-01
 -9.46190838e-01 -9.45854691e-01 -9.45854691e-01 -9.44476078e-01
 -1.29821559e-01 -2.65570221e-03  1.19038931e-02  1.19038931e-02
  1.26609666e-02  1.75921217e-02  1.75921217e-02  2.04268651e-02
  2.45889398e-02  2.73496717e-02  2.73496717e-02  3.15404253e-02
  3.20906785e-02  3.20906785e-02  3.35456372e-02  3.35456372e-02
  4.14954608e-02  4.14954608e-02  4.37994929e-02  4.37994929e-02
  4.83445856e-02  5.05844112e-02  5.21941579e-02  5.21941579e-02
  5.29952189e-02  5.29952189e-02  5.78268871e-02  5.78268871e-02
  6.36769979e-02  6.42062915e-02  6.42062915e-02  6.95537747e-02
  6.95537747e-02  7.09780558e-02  7.09780558e-02  7.35452161e-02
  7.41316176e-02  7.41316176e-02  7.42763040e-02  7.42763040e-02
  7.48996417e-02  8.28278858e-02  8.28278858e-02  8.41070916e-02
  8.41070916e-02  9.17356398e-02  9.17356398e-02  9.26697034e-02
  1.02163309e-01  1.02163309e-01  1.20504008e-01  1.26423507e-01
  1.26423507e-01  1.30901642e-01  1.30901642e-01  1.35597275e-01
  1.44538115e-01  1.65472630e-01  1.65472630e-01  1.72866429e-01
  1.96531623e-01  2.05471162e-01  2.05471162e-01  2.13437663e-01
  2.13437663e-01  2.26662110e-01  2.26662110e-01  2.36297351e-01
  2.36297351e-01  2.45637872e-01  2.45637872e-01  2.46993412e-01
  2.46993412e-01  2.67358404e-01  2.68111974e-01  2.68111974e-01
  2.94618436e-01  3.00232206e-01  3.00232206e-01  3.04678310e-01
  3.14707230e-01  3.14707230e-01  3.15726135e-01  3.30833739e-01
  3.32282173e-01  3.32282173e-01  3.45977014e-01  3.45977014e-01
  3.50793776e-01  3.81630436e-01  3.81630436e-01  4.43373986e-01
  4.43373986e-01  4.47863042e-01  4.58258570e-01  4.58258570e-01
  4.71962057e-01  4.71962057e-01  5.49563758e-01  5.49563758e-01
  5.70171661e-01  6.19769914e-01  6.19769914e-01  6.27747643e-01
  6.27747643e-01  6.32610639e-01  6.32610639e-01  6.49225537e-01
  6.49225537e-01  6.54657923e-01  6.66939457e-01  6.82789175e-01
  6.82789175e-01  7.42928790e-01  7.42928790e-01  7.64691627e-01
  8.67826159e-01  9.56251282e-01  9.94891617e-01  9.94891617e-01
  1.17669244e+00  1.30017044e+00  1.30017044e+00  1.38272894e+00
  2.99476290e+01  3.00371763e+01]
E1 = -113.49415192934904  E_coul = 47.39180878241554
cycle= 7 E= -55.8650959330524  delta_E= -4.04e-10  |g|= 4.64e-06  |ddm|= 0.00109
    CPU time for cycle= 7     84.49 sec, wall time      0.67 sec
  HOMO = -0.12982144070582  LUMO = -0.00265569245823067
  mo_energy =
[-1.77514501e+00 -1.77504483e+00 -9.46682126e-01 -9.46192166e-01
 -9.46192166e-01 -9.45856021e-01 -9.45856021e-01 -9.44477403e-01
 -1.29821441e-01 -2.65569246e-03  1.19038238e-02  1.19038238e-02
  1.26609112e-02  1.75921238e-02  1.75921238e-02  2.04268274e-02
  2.45889725e-02  2.73496287e-02  2.73496287e-02  3.15404422e-02
  3.20906689e-02  3.20906689e-02  3.35456370e-02  3.35456370e-02
  4.14954294e-02  4.14954294e-02  4.37994392e-02  4.37994392e-02
  4.83443957e-02  5.05844117e-02  5.21941772e-02  5.21941772e-02
  5.29952267e-02  5.29952267e-02  5.78268787e-02  5.78268787e-02
  6.36770105e-02  6.42062463e-02  6.42062463e-02  6.95537627e-02
  6.95537627e-02  7.09780437e-02  7.09780437e-02  7.35451472e-02
  7.41316020e-02  7.41316020e-02  7.42762497e-02  7.42762497e-02
  7.48996118e-02  8.28278615e-02  8.28278615e-02  8.41069807e-02
  8.41069807e-02  9.17355181e-02  9.17355181e-02  9.26697101e-02
  1.02163236e-01  1.02163236e-01  1.20503804e-01  1.26423458e-01
  1.26423458e-01  1.30901520e-01  1.30901520e-01  1.35597181e-01
  1.44538142e-01  1.65472577e-01  1.65472577e-01  1.72866315e-01
  1.96531331e-01  2.05470892e-01  2.05470892e-01  2.13437363e-01
  2.13437363e-01  2.26661840e-01  2.26661840e-01  2.36297191e-01
  2.36297191e-01  2.45637735e-01  2.45637735e-01  2.46993159e-01
  2.46993159e-01  2.67358286e-01  2.68111832e-01  2.68111832e-01
  2.94618461e-01  3.00232099e-01  3.00232099e-01  3.04678067e-01
  3.14707122e-01  3.14707122e-01  3.15726006e-01  3.30833519e-01
  3.32281981e-01  3.32281981e-01  3.45976820e-01  3.45976820e-01
  3.50793482e-01  3.81630101e-01  3.81630101e-01  4.43373039e-01
  4.43373039e-01  4.47862377e-01  4.58257576e-01  4.58257576e-01
  4.71961088e-01  4.71961088e-01  5.49562940e-01  5.49562940e-01
  5.70170774e-01  6.19769656e-01  6.19769656e-01  6.27747403e-01
  6.27747403e-01  6.32610352e-01  6.32610352e-01  6.49225247e-01
  6.49225247e-01  6.54657124e-01  6.66939180e-01  6.82788924e-01
  6.82788924e-01  7.42928556e-01  7.42928556e-01  7.64691233e-01
  8.67825672e-01  9.56251087e-01  9.94890989e-01  9.94890989e-01
  1.17669169e+00  1.30016971e+00  1.30016971e+00  1.38272811e+00
  2.99476262e+01  3.00371735e+01]
E1 = -113.49415819212204  E_coul = 47.391815045173395
Extra cycle  E= -55.8650959330676  delta_E= -1.51e-11  |g|= 1.55e-06  |ddm|= 0.000105
    CPU time for scf_cycle    761.27 sec, wall time      7.62 sec
    CPU time for SCF    761.30 sec, wall time      7.62 sec
converged SCF energy = -55.8650959330676
