#INFO: **** input file is /home/nkousuke/lustre/toBeSync/turboRVB/05turbo-genius-development/turbogenius_paper/04data/sanity_checks/03pyscf_HF_turbo_VMC_via_trexio/00open_boundary/results/Br/pyscf-HF-workflow/run.py ****

from pyscf_wrapper import Pyscf_wrapper

# input variables
pyscf_chkfile="pyscf.chk"
structure_file="Br.xyz"

# input variables
omp_num_threads=128
charge=0
spin=1
basis="ccecp-ccpvqz"
ecp="ccecp"
scf_method="HF"
dft_xc="NA"
solver_newton=False
MP2_flag=False
CCSD_flag=False
pyscf_output="out.pyscf"
twist_average=False
exp_to_discard=0.0
kpt=[0.0, 0.0, 0.0]
kpt_grid=[1, 1, 1]
smearing_method="fermi"
smearing_sigma=0.0

pyscf_calc=Pyscf_wrapper(
                        structure_file=structure_file,
                        chkfile=pyscf_chkfile,
                        )

pyscf_calc.run_pyscf(
                  omp_num_threads=omp_num_threads,
                  charge=charge,
                  spin=spin,
                  basis=basis,
                  ecp=ecp,
                  scf_method=scf_method,
                  dft_xc=dft_xc,
                  solver_newton=solver_newton,
                  MP2_flag=MP2_flag,
                  CCSD_flag=CCSD_flag,
                  pyscf_output=pyscf_output,
                  twist_average=twist_average,
                  exp_to_discard=exp_to_discard,
                  kpt=kpt,
                  kpt_grid=kpt_grid,
                  smearing_method=smearing_method,
                  smearing_sigma=smearing_sigma
                  )
                #INFO: ******************** input file end ********************


System: uname_result(system='Linux', node='spcc-200', release='5.4.0-66-generic', version='#74-Ubuntu SMP Wed Jan 27 22:54:38 UTC 2021', machine='x86_64', processor='x86_64')  Threads 128
Python 3.7.3 (default, Mar 27 2019, 22:11:17) 
[GCC 7.3.0]
numpy 1.20.1  scipy 1.7.3
Date: Mon Dec 19 18:04:00 2022
PySCF version 2.0.1
PySCF path  /home/nkousuke/application/anaconda3/lib/python3.7/site-packages/pyscf

[CONFIG] conf_file /home/nkousuke/.pyscf_conf.py
[INPUT] verbose = 5
[INPUT] max_memory = 507502.42578125 
[INPUT] num. atoms = 1
[INPUT] num. electrons = 7
[INPUT] charge = 0
[INPUT] spin (= nelec alpha-beta = 2S) = 1
[INPUT] symmetry False subgroup None
[INPUT] Mole.unit = A
[INPUT]  1 Br     0.000000000000   0.000000000000   0.000000000000 AA    0.000000000000   0.000000000000   0.000000000000 Bohr
[INPUT] ---------------- BASIS SET ---------------- 
[INPUT] l, kappa, [nprim/nctr], expnt,             c_1 c_2 ...
[INPUT] Br
[INPUT] 0    0    [9    /1   ]  60.457695         -0.000452
                                27.422852         0.003372
                                12.438662         -0.025045
                                5.642021          0.170101
                                2.55915           -0.430992
                                1.160798          -0.154358
                                0.526524          0.525458
                                0.238824          0.592735
                                0.108328          0.16949
[INPUT] 0    0    [1    /1   ]  0.716355             1
[INPUT] 0    0    [1    /1   ]  0.328206             1
[INPUT] 0    0    [1    /1   ]  0.150371             1
[INPUT] 1    0    [9    /1   ]  27.437987         8.7e-05
                                12.88744          -0.001797
                                6.053145          0.02715
                                2.843122          -0.134143
                                1.335395          -0.006234
                                0.627226          0.309551
                                0.294604          0.440285
                                0.138374          0.31675
                                0.064993          0.092533
[INPUT] 1    0    [1    /1   ]  0.750243             1
[INPUT] 1    0    [1    /1   ]  0.285597             1
[INPUT] 1    0    [1    /1   ]  0.108719             1
[INPUT] 2    0    [1    /1   ]  1.865751             1
[INPUT] 2    0    [1    /1   ]  0.698782             1
[INPUT] 2    0    [1    /1   ]  0.261716             1
[INPUT] 3    0    [1    /1   ]  0.852676             1
[INPUT] 3    0    [1    /1   ]  0.345036             1
[INPUT] 4    0    [1    /1   ]  0.673499             1

nuclear repulsion = 0
number of shells = 14
number of NR pGTOs = 86
number of NR cGTOs = 54
basis = ccecp-ccpvqz
ecp = ccecp
CPU time:         4.85


******** <class 'pyscf.scf.rohf.ROHF'> ********
method = ROHF-RHF
initial guess = minao
damping factor = 0
level_shift factor = 0
DIIS = <class 'pyscf.scf.diis.CDIIS'>
diis_start_cycle = 1
diis_space = 8
SCF conv_tol = 1e-09
SCF conv_tol_grad = None
SCF max_cycles = 200
direct_scf = True
direct_scf_tol = 1e-13
chkfile to save SCF result = pyscf.chk
max_memory 507502 MB (current use 106 MB)
num. doubly occ = 3  num. singly occ = 1
Set gradient conv threshold to 3.16228e-05
E1 = -21.87794585757098  Ecoul = 8.928801621719535
init E= -12.9491442358514
cond(S) = 640.4128638781782
    CPU time for initialize scf    112.41 sec, wall time      1.19 sec
  HOMO = -0.394192948846347  LUMO = 0.395355126086643
                  Roothaan           | alpha              | beta
  Highest 2-occ = -0.394192948846347 | -0.394192948846347 | -0.394192948846347
  Lowest 0-occ =   0.395355126086643 |  0.395355126086643 |  0.395355126086643
  1-occ =         -0.394192948846347 | -0.394192948846346 | -0.394192948846346
  Roothaan mo_energy =
[-1.02485014 -0.39419295 -0.39419295 -0.39419295  0.39535513  0.39535513
  0.39535513  0.42051957  0.52203217  0.52203217  0.52203217  0.52203217
  0.52203217  1.20162304  1.20162304  1.20162304  1.20162304  1.20162304
  1.20162304  1.20162304  1.9685377   1.9685377   1.9685377   2.05874018
  2.05874018  2.05874018  2.05874018  2.05874018  2.39181854  3.07298558
  3.07298558  3.07298558  3.07298558  3.07298558  3.07298558  3.07298558
  3.07298558  3.07298558  3.15769737  3.15769737  3.15769737  3.15769737
  3.15769737  3.15769737  3.15769737  9.84525217  9.84525217  9.84525217
  9.84525217  9.84525217 17.10453929 17.10453929 17.10453929 27.81829515]
E1 = -21.83716384240325  Ecoul = 8.718549418057489
cycle= 1 E= -13.1186144243458  delta_E= -0.169  |g|= 0.0723  |ddm|= 0.897
    CPU time for cycle= 1     15.85 sec, wall time      0.12 sec
  HOMO = -0.293384154112537  LUMO = 0.388136237735176
                  Roothaan           | alpha              | beta
  Highest 2-occ = -0.453778015149588 | -0.467742131749249 | -0.439813898549933
  Lowest 0-occ =   0.388136237735176 |  0.366190278021197 |  0.399652109083098
  1-occ =         -0.293384154112537 | -0.523290572568819 | -0.0548622701183695
  Roothaan mo_energy =
[-1.03202248 -0.45377802 -0.45377802 -0.29338415  0.38813624  0.39653488
  0.39653488  0.41634238  0.51250298  0.51478844  0.51478844  0.52245969
  0.52245969  1.18366107  1.18674903  1.18674903  1.19740953  1.19740953
  1.21516369  1.21516369  1.94281032  1.97094677  1.97094677  2.03614707
  2.04359581  2.04359581  2.06641323  2.06641323  2.38436506  3.04562524
  3.04868626  3.04868626  3.05790379  3.05790379  3.07338233  3.07338233
  3.0953008   3.0953008   3.12993586  3.13458606  3.13458606  3.14895908
  3.14895908  3.17331448  3.17331448  9.81677805  9.82488222  9.82488222
  9.84933347  9.84933347 17.07625715 17.09970033 17.09970033 27.80488145]
E1 = -21.916823994928027  Ecoul = 8.795399736183274
cycle= 2 E= -13.1214242587448  delta_E= -0.00281  |g|= 0.0129  |ddm|= 0.148
    CPU time for cycle= 2     36.86 sec, wall time      0.29 sec
  HOMO = -0.276351716253006  LUMO = 0.389398456300468
                  Roothaan           | alpha              | beta
  Highest 2-occ = -0.443191783802663 | -0.457387052569096 | -0.429646021902976
  Lowest 0-occ =   0.389398456300468 |  0.370048648784974 |  0.403036964601796
  1-occ =         -0.276351716253006 | -0.515815896496928 | -0.0377736585983911
  Roothaan mo_energy =
[-1.01765372 -0.44319178 -0.44319178 -0.27635172  0.38939846  0.40013456
  0.40013456  0.42376287  0.52297986  0.5248261   0.5248261   0.53051058
  0.53051058  1.19320564  1.19651704  1.19651704  1.20602686  1.20602686
  1.2218946   1.2218946   1.95915088  1.9839936   1.9839936   2.05307709
  2.05968897  2.05968897  2.07985092  2.07985092  2.39951458  3.06183323
  3.06458464  3.06458464  3.07287058  3.07287058  3.08678885  3.08678885
  3.10652456  3.10652456  3.14971211  3.15401762  3.15401762  3.16691987
  3.16691987  3.18880433  3.18880433  9.8436165   9.85090239  9.85090239
  9.87295645  9.87295645 17.1039339  17.12507372 17.12507372 27.83257876]
E1 = -21.905196600949715  Ecoul = 8.783724022705188
cycle= 3 E= -13.1214725782445  delta_E= -4.83e-05  |g|= 0.00151  |ddm|= 0.0274
    CPU time for cycle= 3     25.08 sec, wall time      0.20 sec
  HOMO = -0.278291992994805  LUMO = 0.388862196895672
                  Roothaan           | alpha              | beta
  Highest 2-occ = -0.445036359861405 | -0.458958506448363 | -0.431279573776178
  Lowest 0-occ =   0.388862196895672 |   0.36951197455164 |  0.402573069879687
  1-occ =         -0.278291992994805 | -0.517537235410262 | -0.0391326669300075
  Roothaan mo_energy =
[-1.01975171 -0.44503636 -0.44503636 -0.27829199  0.3888622   0.39959565
  0.39959565  0.42287043  0.52163411  0.52346618  0.52346618  0.52909419
  0.52909419  1.19197174  1.19531928  1.19531928  1.20481733  1.20481733
  1.22067005  1.22067005  1.95685452  1.98175612  1.98175612  2.05061899
  2.05726317  2.05726317  2.07741266  2.07741266  2.39713381  3.05973669
  3.06248217  3.06248217  3.07075058  3.07075058  3.08464098  3.08464098
  3.10434379  3.10434379  3.14679216  3.15110714  3.15110714  3.16397889
  3.16397889  3.18580762  3.18580762  9.83918567  9.84643357  9.84643357
  9.86839312  9.86839312 17.09924742 17.12028727 17.12028727 27.82751026]
E1 = -21.90696655452825  Ecoul = 8.785492597337555
cycle= 4 E= -13.1214739571907  delta_E= -1.38e-06  |g|= 0.000254  |ddm|= 0.00432
    CPU time for cycle= 4     21.50 sec, wall time      0.17 sec
  HOMO = -0.278115149485416  LUMO = 0.388819698578157
                  Roothaan           | alpha              | beta
  Highest 2-occ = -0.444897710816742 | -0.458718517556029 |  -0.43103116127309
  Lowest 0-occ =   0.388819698578157 |  0.369544698961307 |  0.402668002963688
  1-occ =         -0.278115149485416 | -0.517395199264047 | -0.0387799941549087
  Roothaan mo_energy =
[-1.01956785 -0.44489771 -0.44489771 -0.27811515  0.3888197   0.39965682
  0.39965682  0.42295995  0.52172869  0.5235643   0.5235643   0.52922032
  0.52922032  1.1920488   1.19539926  1.19539926  1.20491569  1.20491569
  1.22079971  1.22079971  1.95696699  1.98194742  1.98194742  2.05076569
  2.05742993  2.05742993  2.07762399  2.07762399  2.39732126  3.05987209
  3.06262215  3.06262215  3.07090439  3.07090439  3.08481802  3.08481802
  3.1045539   3.1045539   3.14697973  3.15130231  3.15130231  3.16419582
  3.16419582  3.18605977  3.18605977  9.83948025  9.84673717  9.84673717
  9.86872501  9.86872501 17.09955655 17.12062258 17.12062258 27.82785766]
E1 = -21.906776509273442  Ecoul = 8.785302528492863
cycle= 5 E= -13.1214739807806  delta_E= -2.36e-08  |g|= 1.07e-05  |ddm|= 0.000591
    CPU time for cycle= 5     28.15 sec, wall time      0.22 sec
  HOMO = -0.278119125509429  LUMO = 0.388817021937806
                  Roothaan           | alpha              | beta
  Highest 2-occ = -0.444900278556471 | -0.458743848236013 | -0.431056087202395
  Lowest 0-occ =   0.388817021937806 |  0.369530045737871 |  0.402662790700199
  1-occ =         -0.278119125509429 | -0.517430516932731 | -0.0388059452399406
  Roothaan mo_energy =
[-1.01957085 -0.44490028 -0.44490028 -0.27811913  0.38881702  0.39965648
  0.39965648  0.42295803  0.52172614  0.52356132  0.52356132  0.52921801
  0.52921801  1.19204613  1.19539629  1.19539629  1.20491311  1.20491311
  1.2207978   1.2207978   1.95696255  1.98194446  1.98194446  2.05076184
  2.05742605  2.05742605  2.07762101  2.07762101  2.39731791  3.05986794
  3.06261807  3.06261807  3.07090052  3.07090052  3.08481446  3.08481446
  3.10455052  3.10455052  3.14697578  3.15129827  3.15129827  3.16419188
  3.16419188  3.18605584  3.18605584  9.83947631  9.84673314  9.84673314
  9.86872022  9.86872022 17.09955293 17.12061816 17.12061816 27.8278534 ]
E1 = -21.906774226354596  Ecoul = 8.78530024552228
cycle= 6 E= -13.1214739808323  delta_E= -5.17e-11  |g|= 7.21e-07  |ddm|= 3.13e-05
    CPU time for cycle= 6     22.01 sec, wall time      0.17 sec
  HOMO = -0.278118812888058  LUMO = 0.388816669463017
                  Roothaan           | alpha              | beta
  Highest 2-occ = -0.444900140395624 | -0.458744068026174 |  -0.43105621276508
  Lowest 0-occ =   0.388816669463017 |  0.369529466835081 |  0.402662833945681
  1-occ =         -0.278118812888058 | -0.517431544146268 | -0.0388060492658082
  Roothaan mo_energy =
[-1.01957081 -0.44490014 -0.44490014 -0.27811881  0.38881667  0.39965652
  0.39965652  0.42295803  0.52172619  0.52356139  0.52356139  0.52921801
  0.52921801  1.19204613  1.19539632  1.19539632  1.20491314  1.20491314
  1.22079779  1.22079779  1.95696262  1.98194452  1.98194452  2.05076192
  2.05742612  2.05742612  2.07762106  2.07762106  2.39731796  3.05986803
  3.06261816  3.06261816  3.07090059  3.07090059  3.08481448  3.08481448
  3.1045505   3.1045505   3.14697591  3.1512984   3.1512984   3.16419196
  3.16419196  3.18605585  3.18605585  9.83947654  9.84673333  9.84673333
  9.86872032  9.86872032 17.09955316 17.1206183  17.1206183  27.82785359]
E1 = -21.906773631657675  Ecoul = 8.785299650825044
Extra cycle  E= -13.1214739808326  delta_E= -3.14e-13  |g|= 1.85e-07  |ddm|= 1.95e-06
    CPU time for scf_cycle    288.95 sec, wall time      2.57 sec
    CPU time for SCF    288.95 sec, wall time      2.57 sec
converged SCF energy = -13.1214739808326
