#INFO: **** input file is /home/nkousuke/lustre/toBeSync/turboRVB/05turbo-genius-development/turbogenius_paper/04data/sanity_checks/03pyscf_HF_turbo_VMC_via_trexio/00open_boundary/results/H-/pyscf-HF-workflow/run.py ****

from pyscf_wrapper import Pyscf_wrapper

# input variables
pyscf_chkfile="pyscf.chk"
structure_file="H.xyz"

# input variables
omp_num_threads=128
charge=-1
spin=0
basis="ccecp-ccpvqz"
ecp="ccecp"
scf_method="HF"
dft_xc="NA"
solver_newton=False
MP2_flag=False
CCSD_flag=False
pyscf_output="out.pyscf"
twist_average=False
exp_to_discard=0.0
kpt=[0.0, 0.0, 0.0]
kpt_grid=[1, 1, 1]
smearing_method="fermi"
smearing_sigma=0.0

pyscf_calc=Pyscf_wrapper(
                        structure_file=structure_file,
                        chkfile=pyscf_chkfile,
                        )

pyscf_calc.run_pyscf(
                  omp_num_threads=omp_num_threads,
                  charge=charge,
                  spin=spin,
                  basis=basis,
                  ecp=ecp,
                  scf_method=scf_method,
                  dft_xc=dft_xc,
                  solver_newton=solver_newton,
                  MP2_flag=MP2_flag,
                  CCSD_flag=CCSD_flag,
                  pyscf_output=pyscf_output,
                  twist_average=twist_average,
                  exp_to_discard=exp_to_discard,
                  kpt=kpt,
                  kpt_grid=kpt_grid,
                  smearing_method=smearing_method,
                  smearing_sigma=smearing_sigma
                  )
                #INFO: ******************** input file end ********************


System: uname_result(system='Linux', node='spcc-200', release='5.4.0-66-generic', version='#74-Ubuntu SMP Wed Jan 27 22:54:38 UTC 2021', machine='x86_64', processor='x86_64')  Threads 128
Python 3.7.3 (default, Mar 27 2019, 22:11:17) 
[GCC 7.3.0]
numpy 1.20.1  scipy 1.7.3
Date: Mon Dec 19 18:03:54 2022
PySCF version 2.0.1
PySCF path  /home/nkousuke/application/anaconda3/lib/python3.7/site-packages/pyscf

[CONFIG] conf_file /home/nkousuke/.pyscf_conf.py
[INPUT] verbose = 5
[INPUT] max_memory = 507492.25390625 
[INPUT] num. atoms = 1
[INPUT] num. electrons = 2
[INPUT] charge = -1
[INPUT] spin (= nelec alpha-beta = 2S) = 0
[INPUT] symmetry False subgroup None
[INPUT] Mole.unit = A
[INPUT]  1 H      0.000000000000   0.000000000000   0.000000000000 AA    0.000000000000   0.000000000000   0.000000000000 Bohr
[INPUT] ---------------- BASIS SET ---------------- 
[INPUT] l, kappa, [nprim/nctr], expnt,             c_1 c_2 ...
[INPUT] H
[INPUT] 0    0    [8    /1   ]  23.843185         0.0041149
                                10.212443         0.0104644
                                4.374164          0.0280111
                                1.873529          0.0758862
                                0.802465          0.1821062
                                0.343709          0.3485214
                                0.147217          0.3782313
                                0.063055          0.1164241
[INPUT] 0    0    [1    /1   ]  0.081856             1
[INPUT] 0    0    [1    /1   ]  0.233254             1
[INPUT] 0    0    [1    /1   ]  0.664673             1
[INPUT] 1    0    [1    /1   ]  0.284469             1
[INPUT] 1    0    [1    /1   ]  0.847159             1
[INPUT] 1    0    [1    /1   ]  2.522868             1
[INPUT] 2    0    [1    /1   ]  0.665279             1
[INPUT] 2    0    [1    /1   ]  2.048739             1
[INPUT] 3    0    [1    /1   ]  1.42146              1

nuclear repulsion = 0
number of shells = 10
number of NR pGTOs = 37
number of NR cGTOs = 30
basis = ccecp-ccpvqz
ecp = ccecp
CPU time:         6.15


******** <class 'pyscf.scf.hf.RHF'> ********
method = RHF
initial guess = minao
damping factor = 0
level_shift factor = 0
DIIS = <class 'pyscf.scf.diis.CDIIS'>
diis_start_cycle = 1
diis_space = 8
SCF conv_tol = 1e-09
SCF conv_tol_grad = None
SCF max_cycles = 200
direct_scf = True
direct_scf_tol = 1e-13
chkfile to save SCF result = pyscf.chk
max_memory 507492 MB (current use 106 MB)
Set gradient conv threshold to 3.16228e-05
E1 = -0.4940274867377467  E_coul = 0.17103899907029457
init E= -0.322988487667452
cond(S) = 1074.3595340695265
    CPU time for initialize scf     71.86 sec, wall time      0.71 sec
  HOMO = -0.183777834475045  LUMO = 0.268459063555832
  mo_energy =
[-0.18377783  0.26845906  0.57169944  0.57169944  0.57169944  1.34790993
  2.11327363  2.11327363  2.11327363  2.11327363  2.11327363  2.42560032
  2.42560032  2.42560032  5.83719854  6.20277315  6.20277315  6.20277315
  6.20277315  6.20277315  6.20277315  6.20277315  8.15895939  8.15895939
  8.15895939  8.15895939  8.15895939  8.27682343  8.27682343  8.27682343]
E1 = -0.9793972342929175  E_coul = 0.5304763782663945
cycle= 1 E= -0.448920856026523  delta_E= -0.126  |g|= 0.185  |ddm|= 0.894
    CPU time for cycle= 1     15.10 sec, wall time      0.12 sec
  HOMO = 0.0289899114132712  LUMO = 0.57322118061374
  mo_energy =
[0.02898991 0.57322118 0.94127293 0.94127293 0.94127293 1.79082202
 2.56652267 2.56652267 2.56652267 2.56652267 2.56652267 2.90820912
 2.90820912 2.90820912 6.38426224 6.71999443 6.71999443 6.71999443
 6.71999443 6.71999443 6.71999443 6.71999443 8.70869915 8.70869915
 8.70869915 8.70869915 8.70869915 8.83745491 8.83745491 8.83745491]
E1 = -0.925567294784838  E_coul = 0.4494885704488967
cycle= 2 E= -0.476078724335941  delta_E= -0.0272  |g|= 0.0259  |ddm|= 0.761
    CPU time for cycle= 2     13.88 sec, wall time      0.11 sec
  HOMO = -0.0190716079174915  LUMO = 0.556133677672854
  mo_energy =
[-0.01907161  0.55613368  0.88715231  0.88715231  0.88715231  1.70764414
  2.48400542  2.48400542  2.48400542  2.48400542  2.48400542  2.80151391
  2.80151391  2.80151391  6.2145907   6.59609784  6.59609784  6.59609784
  6.59609784  6.59609784  6.59609784  6.59609784  8.54974428  8.54974428
  8.54974428  8.54974428  8.54974428  8.66213626  8.66213626  8.66213626]
E1 = -0.914156724552686  E_coul = 0.4374314884823581
cycle= 3 E= -0.476725236070328  delta_E= -0.000647  |g|= 0.00384  |ddm|= 0.157
    CPU time for cycle= 3     14.51 sec, wall time      0.11 sec
  HOMO = -0.0198084475443056  LUMO = 0.554014136045297
  mo_energy =
[-0.01980845  0.55401414  0.88457597  0.88457597  0.88457597  1.70356189
  2.47984104  2.47984104  2.47984104  2.47984104  2.47984104  2.79707456
  2.79707456  2.79707456  6.21003565  6.59090855  6.59090855  6.59090855
  6.59090855  6.59090855  6.59090855  6.59090855  8.54465727  8.54465727
  8.54465727  8.54465727  8.54465727  8.65728828  8.65728828  8.65728828]
E1 = -0.9133738165571998  E_coul = 0.43664087059140966
cycle= 4 E= -0.47673294596579  delta_E= -7.71e-06  |g|= 0.000119  |ddm|= 0.0233
    CPU time for cycle= 4     13.32 sec, wall time      0.10 sec
  HOMO = -0.020074143294767  LUMO = 0.554156402284955
  mo_energy =
[-0.02007414  0.5541564   0.88449664  0.88449664  0.88449664  1.70349401
  2.47974331  2.47974331  2.47974331  2.47974331  2.47974331  2.79694408
  2.79694408  2.79694408  6.20977914  6.59075572  6.59075572  6.59075572
  6.59075572  6.59075572  6.59075572  6.59075572  8.54443483  8.54443483
  8.54443483  8.54443483  8.54443483  8.65702234  8.65702234  8.65702234]
E1 = -0.9133423160732761  E_coul = 0.43660936353731084
cycle= 5 E= -0.476732952535965  delta_E= -6.57e-09  |g|= 4.92e-06  |ddm|= 0.000785
    CPU time for cycle= 5     13.82 sec, wall time      0.11 sec
  HOMO = -0.0200611041065131  LUMO = 0.554146136241757
  mo_energy =
[-0.0200611   0.55414614  0.88449807  0.88449807  0.88449807  1.70349284
  2.47974416  2.47974416  2.47974416  2.47974416  2.47974416  2.79694489
  2.79694489  2.79694489  6.20978281  6.59075774  6.59075774  6.59075774
  6.59075774  6.59075774  6.59075774  6.59075774  8.54443809  8.54443809
  8.54443809  8.54443809  8.54443809  8.65702619  8.65702619  8.65702619]
E1 = -0.9133436676736897  E_coul = 0.436610715126157
cycle= 6 E= -0.476732952547533  delta_E= -1.16e-11  |g|= 1.01e-08  |ddm|= 2.97e-05
    CPU time for cycle= 6     12.80 sec, wall time      0.10 sec
  HOMO = -0.0200611187106878  LUMO = 0.554146156072893
  mo_energy =
[-0.02006112  0.55414616  0.88449808  0.88449808  0.88449808  1.70349285
  2.47974417  2.47974417  2.47974417  2.47974417  2.47974417  2.7969449
  2.7969449   2.7969449   6.20978282  6.59075775  6.59075775  6.59075775
  6.59075775  6.59075775  6.59075775  6.59075775  8.5444381   8.5444381
  8.5444381   8.5444381   8.5444381   8.6570262   8.6570262   8.6570262 ]
E1 = -0.9133436632985974  E_coul = 0.4366107107510645
Extra cycle  E= -0.476732952547533  delta_E= -2.22e-16  |g|= 2.08e-09  |ddm|= 5.7e-08
    CPU time for scf_cycle    177.79 sec, wall time      1.54 sec
    CPU time for SCF    177.79 sec, wall time      1.54 sec
converged SCF energy = -0.476732952547533
