#INFO: **** input file is /home/nkousuke/lustre/toBeSync/turboRVB/05turbo-genius-development/turbogenius_paper/04data/sanity_checks/03pyscf_HF_turbo_VMC_via_trexio/00open_boundary/results/H2S/pyscf-HF-workflow/run.py ****

from pyscf_wrapper import Pyscf_wrapper

# input variables
pyscf_chkfile="pyscf.chk"
structure_file="H2S.xyz"

# input variables
omp_num_threads=128
charge=0
spin=0
basis="ccecp-ccpvqz"
ecp="ccecp"
scf_method="HF"
dft_xc="NA"
solver_newton=False
MP2_flag=False
CCSD_flag=False
pyscf_output="out.pyscf"
twist_average=False
exp_to_discard=0.0
kpt=[0.0, 0.0, 0.0]
kpt_grid=[1, 1, 1]
smearing_method="fermi"
smearing_sigma=0.0

pyscf_calc=Pyscf_wrapper(
                        structure_file=structure_file,
                        chkfile=pyscf_chkfile,
                        )

pyscf_calc.run_pyscf(
                  omp_num_threads=omp_num_threads,
                  charge=charge,
                  spin=spin,
                  basis=basis,
                  ecp=ecp,
                  scf_method=scf_method,
                  dft_xc=dft_xc,
                  solver_newton=solver_newton,
                  MP2_flag=MP2_flag,
                  CCSD_flag=CCSD_flag,
                  pyscf_output=pyscf_output,
                  twist_average=twist_average,
                  exp_to_discard=exp_to_discard,
                  kpt=kpt,
                  kpt_grid=kpt_grid,
                  smearing_method=smearing_method,
                  smearing_sigma=smearing_sigma
                  )
                #INFO: ******************** input file end ********************


System: uname_result(system='Linux', node='spcc-200', release='5.4.0-66-generic', version='#74-Ubuntu SMP Wed Jan 27 22:54:38 UTC 2021', machine='x86_64', processor='x86_64')  Threads 128
Python 3.7.3 (default, Mar 27 2019, 22:11:17) 
[GCC 7.3.0]
numpy 1.20.1  scipy 1.7.3
Date: Mon Dec 19 18:04:46 2022
PySCF version 2.0.1
PySCF path  /home/nkousuke/application/anaconda3/lib/python3.7/site-packages/pyscf

[CONFIG] conf_file /home/nkousuke/.pyscf_conf.py
[INPUT] verbose = 5
[INPUT] max_memory = 507467.78125 
[INPUT] num. atoms = 3
[INPUT] num. electrons = 8
[INPUT] charge = 0
[INPUT] spin (= nelec alpha-beta = 2S) = 0
[INPUT] symmetry False subgroup None
[INPUT] Mole.unit = A
[INPUT]  1 S      0.000000000000   0.000000000000   0.103100000000 AA    0.000000000000   0.000000000000   0.194830763443 Bohr
[INPUT]  2 H      0.000000000000   0.960820000000  -0.824760000000 AA    0.000000000000   1.815686655005  -1.558570518496 Bohr
[INPUT]  3 H      0.000000000000  -0.960820000000  -0.824760000000 AA    0.000000000000  -1.815686655005  -1.558570518496 Bohr
[INPUT] ---------------- BASIS SET ---------------- 
[INPUT] l, kappa, [nprim/nctr], expnt,             c_1 c_2 ...
[INPUT] H
[INPUT] 0    0    [8    /1   ]  23.843185         0.0041149
                                10.212443         0.0104644
                                4.374164          0.0280111
                                1.873529          0.0758862
                                0.802465          0.1821062
                                0.343709          0.3485214
                                0.147217          0.3782313
                                0.063055          0.1164241
[INPUT] 0    0    [1    /1   ]  0.081856             1
[INPUT] 0    0    [1    /1   ]  0.233254             1
[INPUT] 0    0    [1    /1   ]  0.664673             1
[INPUT] 1    0    [1    /1   ]  0.284469             1
[INPUT] 1    0    [1    /1   ]  0.847159             1
[INPUT] 1    0    [1    /1   ]  2.522868             1
[INPUT] 2    0    [1    /1   ]  0.665279             1
[INPUT] 2    0    [1    /1   ]  2.048739             1
[INPUT] 3    0    [1    /1   ]  1.42146              1
[INPUT] S
[INPUT] 0    0    [10   /1   ]  14.05257          0.002102
                                7.864913          -0.011042
                                4.401818          0.086618
                                2.4636            -0.271004
                                1.378823          -0.151274
                                0.771696          0.136044
                                0.431901          0.39436
                                0.241726          0.432098
                                0.135289          0.230974
                                0.075718          0.051205
[INPUT] 0    0    [1    /1   ]  0.818729             1
[INPUT] 0    0    [1    /1   ]  0.332501             1
[INPUT] 0    0    [1    /1   ]  0.135035             1
[INPUT] 1    0    [10   /1   ]  6.808844          -0.003573
                                3.94156           0.001903
                                2.281723          -0.065016
                                1.320863          0.042305
                                0.764632          0.158772
                                0.442637          0.278172
                                0.256237          0.293821
                                0.148333          0.248015
                                0.085868          0.114905
                                0.049708          0.032934
[INPUT] 1    0    [1    /1   ]  2.088209             1
[INPUT] 1    0    [1    /1   ]  0.838124             1
[INPUT] 1    0    [1    /1   ]  0.33639              1
[INPUT] 2    0    [1    /1   ]  1.68189              1
[INPUT] 2    0    [1    /1   ]  0.613672             1
[INPUT] 2    0    [1    /1   ]  0.223911             1
[INPUT] 3    0    [1    /1   ]  0.898397             1
[INPUT] 3    0    [1    /1   ]  0.339271             1
[INPUT] 4    0    [1    /1   ]  0.691446             1

nuclear repulsion = 5.0295278382091
number of shells = 34
number of NR pGTOs = 164
number of NR cGTOs = 114
basis = ccecp-ccpvqz
ecp = ccecp
CPU time:         7.17


******** <class 'pyscf.scf.hf.RHF'> ********
method = RHF
initial guess = minao
damping factor = 0
level_shift factor = 0
DIIS = <class 'pyscf.scf.diis.CDIIS'>
diis_start_cycle = 1
diis_space = 8
SCF conv_tol = 1e-09
SCF conv_tol_grad = None
SCF max_cycles = 200
direct_scf = True
direct_scf_tol = 1e-13
chkfile to save SCF result = pyscf.chk
max_memory 507467 MB (current use 106 MB)
Set gradient conv threshold to 3.16228e-05
E1 = -26.972801890691873  E_coul = 11.115047774349582
init E= -10.8282262781332
cond(S) = 13519.268785918184
    CPU time for initialize scf    114.96 sec, wall time      0.99 sec
  HOMO = -0.315707116456984  LUMO = 0.0782086869805058
  mo_energy =
[-1.1147701  -0.56491263 -0.45783267 -0.31570712  0.07820869  0.08764627
  0.21037525  0.2702459   0.34777742  0.37910773  0.4013336   0.40524287
  0.43994445  0.45387364  0.51674742  0.65730689  0.68609504  0.7850926
  0.79953515  0.82286092  0.83107058  1.09880369  1.12784408  1.13931665
  1.14235538  1.20911818  1.28242525  1.33522872  1.34768409  1.36835641
  1.47140762  1.48374433  1.49446062  1.49772123  1.51301512  1.66716002
  1.72189562  2.12908545  2.19862291  2.22308216  2.3067038   2.35043038
  2.36592329  2.44374913  2.47803549  2.55571004  2.5682897   2.60951993
  2.63621716  2.85637152  2.88246506  2.9159956   2.93712928  3.0683975
  3.07252918  3.20782519  3.22473367  3.42573476  3.47470203  3.50375328
  3.57915358  3.58828962  3.59702846  3.60725595  3.63648485  3.69216934
  3.71981066  3.89335445  3.90407009  3.91868591  4.04400611  4.07631532
  4.52884218  4.65952532  4.68210022  4.7103222   4.89947856  4.92405388
  6.17858239  6.197625    6.20962538  6.23681613  6.52793961  6.60864618
  6.86544822  6.91282867  6.94471228  7.04736652  7.18781581  7.20312529
  7.27028191  7.37488052  7.50279496  7.52128058  8.19383858  8.25677841
  8.31173935  8.36859236  8.53133727  8.58651866  8.61551892  8.74083702
  8.84988826  8.92268033  8.98272279  8.99562425  9.03588115  9.09272038
  9.17732776  9.31697089  9.36334449 10.82745247 11.31683576 15.34430854]
E1 = -27.39460587905809  E_coul = 11.251593105291127
cycle= 1 E= -11.1134849355579  delta_E= -0.285  |g|= 0.201  |ddm|= 2.57
    CPU time for cycle= 1     52.49 sec, wall time      0.45 sec
  HOMO = -0.374736140128956  LUMO = 0.0971689627869761
  mo_energy =
[-0.99292502 -0.59808689 -0.48914217 -0.37473614  0.09716896  0.14010833
  0.20893528  0.28554761  0.36743021  0.40627795  0.41751248  0.42841777
  0.4700576   0.48097906  0.54698811  0.67334934  0.69143699  0.77676035
  0.78349845  0.83012241  0.83111189  1.10091596  1.13492282  1.13952271
  1.15464081  1.2397486   1.31468371  1.38062021  1.38771889  1.39094063
  1.52341219  1.5314094   1.53329171  1.53917874  1.55750731  1.69059951
  1.73748828  2.18449564  2.18587976  2.19716471  2.27339977  2.35541303
  2.40696387  2.42434164  2.45569207  2.52204911  2.54838881  2.59941132
  2.63002135  2.85576256  2.86937627  2.92749327  2.93089009  3.05772965
  3.09267799  3.21482564  3.23957848  3.46996668  3.52002541  3.55508933
  3.6307839   3.64437259  3.66137939  3.6722338   3.70100182  3.75356488
  3.78157388  3.95649962  3.97263274  3.98012285  4.08160843  4.10860239
  4.55266684  4.70360938  4.72537594  4.74137435  4.9179646   4.93066662
  6.13991336  6.15707872  6.16883719  6.19795317  6.5005878   6.58096638
  6.84703303  6.88721778  6.93647546  7.02842598  7.1647657   7.17825571
  7.24051179  7.35533276  7.45847998  7.48426719  8.13844233  8.2004035
  8.25454556  8.31176578  8.47642803  8.51930058  8.55579735  8.69112221
  8.8510628   8.88156033  8.94832933  8.99695476  9.04196345  9.1189939
  9.13292985  9.27690519  9.33586822 10.83223263 11.3197293  15.41779932]
E1 = -27.382786739191417  E_coul = 11.22246126227849
cycle= 2 E= -11.1307976387038  delta_E= -0.0173  |g|= 0.0628  |ddm|= 0.469
    CPU time for cycle= 2     34.65 sec, wall time      0.27 sec
  HOMO = -0.385739426050397  LUMO = 0.106728884821574
  mo_energy =
[-0.9888858  -0.58964786 -0.50401949 -0.38573943  0.10672888  0.14529463
  0.2095182   0.28883337  0.37143206  0.40213045  0.41832941  0.42518891
  0.46311085  0.47708095  0.54558311  0.66852657  0.6950907   0.79145197
  0.79432756  0.83222801  0.84072723  1.11170664  1.13993548  1.15397305
  1.15475744  1.2352747   1.31196589  1.37120916  1.37899154  1.38216449
  1.50765885  1.5216771   1.52188785  1.52294288  1.54274511  1.68759502
  1.74556634  2.17252706  2.20627529  2.22790689  2.31002821  2.37323266
  2.37794863  2.45294355  2.48578122  2.55165772  2.56794652  2.61868877
  2.64345473  2.86127395  2.88860803  2.93572376  2.94810563  3.07117327
  3.10111493  3.22369882  3.24491045  3.46950661  3.50719546  3.54468804
  3.61264661  3.63511934  3.63624961  3.64683005  3.67493737  3.73301722
  3.75948971  3.94003806  3.95183843  3.95753671  4.07482877  4.10425861
  4.54860235  4.69500239  4.71581712  4.73588651  4.92215037  4.94303179
  6.18300843  6.20358056  6.21361326  6.2415646   6.54384698  6.61790012
  6.88450306  6.92884104  6.9716289   7.06501804  7.2090109   7.21553435
  7.28061474  7.39834023  7.50394736  7.53112308  8.19499714  8.25737118
  8.30979364  8.36783116  8.52730221  8.57615157  8.61132426  8.73549833
  8.87742134  8.93310902  9.00057231  9.0013011   9.05207095  9.12177333
  9.1842329   9.33124695  9.38373654 10.85203047 11.34217309 15.3892982 ]
E1 = -27.40893097399668  E_coul = 11.246793269858722
cycle= 3 E= -11.1326098659289  delta_E= -0.00181  |g|= 0.0201  |ddm|= 0.152
    CPU time for cycle= 3     38.32 sec, wall time      0.30 sec
  HOMO = -0.382300440809308  LUMO = 0.107708906312727
  mo_energy =
[-0.98435994 -0.58888027 -0.50026628 -0.38230044  0.10770891  0.14991086
  0.21061515  0.29001245  0.37540494  0.40562938  0.42163155  0.42855834
  0.46435485  0.48054091  0.54795414  0.6711533   0.69726452  0.79295364
  0.79568074  0.83442016  0.84210927  1.11368354  1.14175751  1.1551887
  1.15786108  1.2384133   1.31541298  1.37469668  1.38298952  1.38586088
  1.5126224   1.52634541  1.52648507  1.52771161  1.54679783  1.69139835
  1.7488598   2.17695516  2.20879373  2.22901913  2.31171425  2.37662406
  2.38643773  2.45659285  2.48822399  2.55469278  2.57141847  2.62202096
  2.64723679  2.8659684   2.89157384  2.93917188  2.95083766  3.0748181
  3.10383219  3.2283247   3.25014284  3.47265821  3.51182046  3.54952146
  3.61878496  3.64049632  3.64356715  3.65301646  3.68265603  3.73936153
  3.76735713  3.94535889  3.95847043  3.96471173  4.08104859  4.11044632
  4.55421864  4.70094044  4.7219617   4.74218377  4.92926956  4.95038672
  6.18704906  6.20676409  6.21729389  6.24537467  6.54784967  6.62283952
  6.88958997  6.93267905  6.97738311  7.07040086  7.21664328  7.22185668
  7.28787642  7.40430274  7.51072886  7.53683019  8.20150195  8.26373544
  8.31640556  8.37417103  8.53466328  8.58244212  8.61835047  8.7440012
  8.88548457  8.9403208   9.00678305  9.01045559  9.06099469  9.12898779
  9.19103088  9.33830299  9.39208883 10.86165211 11.35074637 15.39784654]
E1 = -27.404920728374776  E_coul = 11.24245259027823
cycle= 4 E= -11.1329402998874  delta_E= -0.00033  |g|= 0.00362  |ddm|= 0.0759
    CPU time for cycle= 4     36.33 sec, wall time      0.28 sec
  HOMO = -0.38344802953667  LUMO = 0.107325915347869
  mo_energy =
[-0.98570673 -0.58998064 -0.50151365 -0.38344803  0.10732592  0.149338
  0.21003874  0.28942967  0.37474015  0.40491028  0.42079982  0.42788295
  0.46390863  0.4799501   0.54730685  0.67037961  0.69646226  0.79244054
  0.79497363  0.83382382  0.84166322  1.11294972  1.14104483  1.15444768
  1.15707054  1.23758229  1.31433232  1.37375243  1.38164481  1.38480814
  1.51136549  1.52535927  1.52549002  1.52625286  1.54575892  1.69025558
  1.74789501  2.175563    2.20807103  2.2282094   2.31087244  2.37580062
  2.38484619  2.45580237  2.48759306  2.55404879  2.57036193  2.62104775
  2.64605512  2.86474484  2.89078791  2.93786507  2.95006744  3.07375534
  3.10241216  3.2270616   3.24878473  3.4709259   3.51014396  3.54790766
  3.61661457  3.63876169  3.64229845  3.65128401  3.68082114  3.73771877
  3.76619564  3.94360306  3.95695793  3.96296959  4.07909852  4.10874007
  4.55233731  4.69908056  4.71995357  4.74007554  4.92734612  4.94867946
  6.18616975  6.20594675  6.21644609  6.24454246  6.54673258  6.62174132
  6.88842542  6.9316351   6.97583305  7.06892411  7.21568128  7.22058745
  7.28666165  7.40314699  7.5097622   7.53571748  8.20077233  8.26299737
  8.31569349  8.37339805  8.53394669  8.58177877  8.61768514  8.74297444
  8.88398502  8.93942922  9.00578389  9.00852922  9.05900517  9.12711999
  9.19005155  9.33728324  9.39081646 10.85983869 11.34871084 15.39469384]
E1 = -27.405990722413907  E_coul = 11.243512063429549
cycle= 5 E= -11.1329508207753  delta_E= -1.05e-05  |g|= 0.000699  |ddm|= 0.012
    CPU time for cycle= 5     41.95 sec, wall time      0.33 sec
  HOMO = -0.383209030446743  LUMO = 0.107381963103213
  mo_energy =
[-0.98538874 -0.58969583 -0.50127774 -0.38320903  0.10738196  0.14949111
  0.21010384  0.28953485  0.37492576  0.40508129  0.42101677  0.42810035
  0.46400963  0.48007872  0.54746517  0.67047618  0.69658462  0.79252951
  0.79506674  0.83393818  0.84177016  1.1131209   1.14116711  1.15461814
  1.15722068  1.23775084  1.31460288  1.37404192  1.38195685  1.38492149
  1.51168198  1.52558932  1.52575133  1.52652609  1.54596382  1.69045472
  1.74811486  2.1759862   2.20822467  2.22837215  2.31107548  2.375951
  2.38512542  2.45600007  2.48778316  2.55420267  2.5705002   2.62132915
  2.64630439  2.86495229  2.89099616  2.93816142  2.95029249  3.07397167
  3.10276052  3.22733207  3.24906892  3.47139691  3.51042513  3.54829033
  3.61699235  3.63921171  3.64260915  3.65170938  3.68119223  3.73809999
  3.76650132  3.9440815   3.95741795  3.96334785  4.07955847  4.10913263
  4.55262143  4.69955749  4.72040807  4.7405427   4.92775191  4.94908147
  6.18637004  6.20616926  6.21664845  6.24474941  6.54704505  6.62198788
  6.88873754  6.93193377  6.97624973  7.06929739  7.21600368  7.22096007
  7.28697505  7.4034992   7.51006984  7.53604656  8.20102963  8.26324847
  8.31593508  8.37365291  8.53423937  8.58204815  8.61796674  8.74325462
  8.88445764  8.93973722  9.00610781  9.00902694  9.05947005  9.12768192
  9.19036602  9.33765597  9.39122718 10.86034674 11.34925422 15.39551832]
E1 = -27.405344304351715  E_coul = 11.242865254585183
cycle= 6 E= -11.1329512115574  delta_E= -3.91e-07  |g|= 0.000166  |ddm|= 0.0019
    CPU time for cycle= 6     37.26 sec, wall time      0.29 sec
  HOMO = -0.383281236764418  LUMO = 0.107363639468479
  mo_energy =
[-0.98546558 -0.58973805 -0.50132005 -0.38328124  0.10736364  0.14947406
  0.21009775  0.28950913  0.37489247  0.40505768  0.42097949  0.42806116
  0.46396825  0.48006321  0.54743016  0.67045512  0.69656802  0.79251031
  0.7950573   0.83391382  0.84174847  1.11309334  1.141142    1.15458598
  1.15719588  1.23771027  1.31454616  1.37398528  1.3818993   1.38489522
  1.51162228  1.52554766  1.52569824  1.52647814  1.54591743  1.69041286
  1.74807994  2.17590674  2.20820107  2.2283433   2.3110497   2.37592995
  2.38507581  2.45597693  2.48775807  2.55419294  2.5704831   2.62129471
  2.64627342  2.86492319  2.89097008  2.93810949  2.95025967  3.07394364
  3.10269132  3.22729036  3.2490228   3.47130505  3.51036646  3.54821882
  3.6169173   3.6391288   3.6425502   3.65163678  3.68112308  3.73803154
  3.7664473   3.94399911  3.95734126  3.96327786  4.07948439  4.10906761
  4.55256304  4.69947729  4.72033098  4.74046342  4.92769348  4.94902978
  6.18635126  6.20614542  6.21662892  6.24472966  6.54700739  6.6219622
  6.88869704  6.93189552  6.97619144  7.06925217  7.21598952  7.22091469
  7.28695237  7.40345917  7.51005694  7.53601985  8.20102428  8.26324337
  8.31593388  8.3736477   8.53423663  8.58205055  8.61796456  8.74325411
  8.88440659  8.93972144  9.00608975  9.00896609  9.05941749  9.12760868
  9.19034981  9.33763027  9.39119488 10.86029178 11.34918877 15.39538692]
E1 = -27.405423824201492  E_coul = 11.24294475458513
cycle= 7 E= -11.1329512314073  delta_E= -1.98e-08  |g|= 3.4e-05  |ddm|= 0.000749
    CPU time for cycle= 7     44.53 sec, wall time      0.35 sec
  HOMO = -0.383275985990478  LUMO = 0.107366584641254
  mo_energy =
[-0.98545503 -0.58972616 -0.50130933 -0.38327599  0.10736658  0.14947746
  0.21009967  0.28951257  0.37489687  0.40506631  0.42098666  0.42806872
  0.463969    0.48006736  0.54743593  0.67045984  0.69657396  0.79251429
  0.79506165  0.83391866  0.84175213  1.11309945  1.14114669  1.15459095
  1.15720149  1.23771638  1.31455319  1.37399394  1.38190919  1.38490191
  1.5116325   1.52555658  1.52570713  1.5264876   1.54592531  1.69042012
  1.74808654  2.175919    2.2082062   2.22834897  2.31105693  2.37593577
  2.38508799  2.45598265  2.48776406  2.55419998  2.57048952  2.62130277
  2.64628206  2.86493229  2.89097699  2.93811859  2.95026631  3.07395107
  3.1027003   3.22729928  3.2490325   3.47131668  3.51037823  3.54823153
  3.61693099  3.63914094  3.64256231  3.65165304  3.68113707  3.73804483
  3.76645928  3.94401385  3.95735543  3.96329081  4.07949806  4.10907874
  4.55257225  4.69949099  4.72034533  4.74047648  4.92770633  4.94904188
  6.18635803  6.2061524   6.21663588  6.24473655  6.54701572  6.62196988
  6.88870405  6.93190321  6.97619983  7.06926167  7.2159992   7.22092339
  7.28696203  7.40346707  7.51006605  7.53602894  8.20103228  8.26325146
  8.31594188  8.37365641  8.534246    8.58205993  8.61797277  8.74326355
  8.88442007  8.93972957  9.00610012  9.0089801   9.05943123  9.12762423
  9.19035936  9.33763918  9.39120399 10.86030552 11.34920211 15.39540813]
E1 = -27.405415484828268  E_coul = 11.242936414239171
cycle= 8 E= -11.13295123238  delta_E= -9.73e-10  |g|= 4.02e-06  |ddm|= 0.000188
    CPU time for cycle= 8     60.27 sec, wall time      0.47 sec
  HOMO = -0.383276799399197  LUMO = 0.107366503626898
  mo_energy =
[-0.98545606 -0.58972793 -0.50131054 -0.3832768   0.1073665   0.14947718
  0.21009977  0.28951237  0.37489624  0.40506577  0.42098616  0.42806806
  0.46396874  0.48006696  0.5474355   0.67045933  0.69657353  0.79251403
  0.79506145  0.83391813  0.84175187  1.11309907  1.14114635  1.15459074
  1.15720104  1.23771574  1.3145523   1.37399315  1.38190841  1.38490131
  1.51163156  1.52555574  1.52570627  1.5264867   1.54592456  1.69041927
  1.748086    2.17591801  2.20820588  2.22834871  2.31105664  2.37593539
  2.38508652  2.4559823   2.48776369  2.55419965  2.57048918  2.62130219
  2.6462815   2.86493154  2.89097658  2.93811786  2.95026582  3.07395048
  3.10269946  3.2272985   3.24903164  3.47131561  3.51037745  3.54823054
  3.61692983  3.63913984  3.64256073  3.6516518   3.68113557  3.73804365
  3.76645782  3.94401282  3.9573541   3.96328939  4.07949694  4.10907759
  4.55257115  4.69948964  4.72034412  4.74047506  4.92770526  4.94904072
  6.18635773  6.20615205  6.21663558  6.24473621  6.54701527  6.62196948
  6.88870352  6.93190269  6.97619921  7.06926111  7.21599849  7.22092275
  7.28696141  7.40346648  7.5100655   7.53602846  8.20103185  8.26325105
  8.31594149  8.37365602  8.53424546  8.58205955  8.61797231  8.74326299
  8.88441905  8.93972903  9.00609957  9.00897865  9.05943012  9.12762303
  9.19035879  9.33763863  9.39120331 10.86030426 11.34920104 15.39540627]
E1 = -27.405415841245105  E_coul = 11.242936770646072
Extra cycle  E= -11.1329512323899  delta_E= -9.94e-12  |g|= 1.49e-06  |ddm|= 1.1e-05
    CPU time for scf_cycle    499.88 sec, wall time      4.04 sec
    CPU time for SCF    499.93 sec, wall time      4.05 sec
converged SCF energy = -11.1329512323899
