#INFO: **** input file is /home/nkousuke/lustre/toBeSync/turboRVB/05turbo-genius-development/turbogenius_paper/04data/sanity_checks/03pyscf_HF_turbo_VMC_via_trexio/00open_boundary/results/Zn/pyscf-HF-workflow/run.py ****

from pyscf_wrapper import Pyscf_wrapper

# input variables
pyscf_chkfile="pyscf.chk"
structure_file="Zn.xyz"

# input variables
omp_num_threads=128
charge=0
spin=0
basis="ccecp-ccpvtz"
ecp="ccecp"
scf_method="HF"
dft_xc="NA"
solver_newton=False
MP2_flag=False
CCSD_flag=False
pyscf_output="out.pyscf"
twist_average=False
exp_to_discard=0.0
kpt=[0.0, 0.0, 0.0]
kpt_grid=[1, 1, 1]
smearing_method="fermi"
smearing_sigma=0.0

pyscf_calc=Pyscf_wrapper(
                        structure_file=structure_file,
                        chkfile=pyscf_chkfile,
                        )

pyscf_calc.run_pyscf(
                  omp_num_threads=omp_num_threads,
                  charge=charge,
                  spin=spin,
                  basis=basis,
                  ecp=ecp,
                  scf_method=scf_method,
                  dft_xc=dft_xc,
                  solver_newton=solver_newton,
                  MP2_flag=MP2_flag,
                  CCSD_flag=CCSD_flag,
                  pyscf_output=pyscf_output,
                  twist_average=twist_average,
                  exp_to_discard=exp_to_discard,
                  kpt=kpt,
                  kpt_grid=kpt_grid,
                  smearing_method=smearing_method,
                  smearing_sigma=smearing_sigma
                  )
                #INFO: ******************** input file end ********************


System: uname_result(system='Linux', node='spcc-200', release='5.4.0-66-generic', version='#74-Ubuntu SMP Wed Jan 27 22:54:38 UTC 2021', machine='x86_64', processor='x86_64')  Threads 128
Python 3.7.3 (default, Mar 27 2019, 22:11:17) 
[GCC 7.3.0]
numpy 1.20.1  scipy 1.7.3
Date: Mon Dec 19 18:08:33 2022
PySCF version 2.0.1
PySCF path  /home/nkousuke/application/anaconda3/lib/python3.7/site-packages/pyscf

[CONFIG] conf_file /home/nkousuke/.pyscf_conf.py
[INPUT] verbose = 5
[INPUT] max_memory = 507488.79296875 
[INPUT] num. atoms = 1
[INPUT] num. electrons = 20
[INPUT] charge = 0
[INPUT] spin (= nelec alpha-beta = 2S) = 0
[INPUT] symmetry False subgroup None
[INPUT] Mole.unit = A
[INPUT]  1 Zn     0.000000000000   0.000000000000   0.000000000000 AA    0.000000000000   0.000000000000   0.000000000000 Bohr
[INPUT] ---------------- BASIS SET ---------------- 
[INPUT] l, kappa, [nprim/nctr], expnt,             c_1 c_2 ...
[INPUT] Zn
[INPUT] 0    0    [13   /1   ]  114.485022        0.000429
                                61.99643          -0.019339
                                40.117132         0.086254
                                20.119649         -0.088955
                                10.171676         -0.402671
                                5.601641          0.067304
                                2.864122          0.479215
                                1.592779          0.50396
                                0.826525          0.222088
                                0.263975          0.012203
                                0.145302          -0.0043
                                0.068195          0.001243
                                0.031465          -0.000267
[INPUT] 0    0    [13   /1   ]  114.485022        -0.000109
                                61.99643          0.004459
                                40.117132         -0.020067
                                20.119649         0.022338
                                10.171676         0.096698
                                5.601641          -0.021966
                                2.864122          -0.128768
                                1.592779          -0.181706
                                0.826525          -0.162311
                                0.263975          0.116264
                                0.145302          0.411314
                                0.068195          0.494257
                                0.031465          0.138103
[INPUT] 0    0    [13   /1   ]  114.485022        0.000666
                                61.99643          0.006269
                                40.117132         -0.046603
                                20.119649         0.050399
                                10.171676         0.363493
                                5.601641          -0.24284
                                2.864122          -0.382281
                                1.592779          -0.861567
                                0.826525          0.706077
                                0.263975          1.495001
                                0.145302          -0.453994
                                0.068195          -0.597822
                                0.031465          -0.256117
[INPUT] 0    0    [13   /1   ]  114.485022        0.000704
                                61.99643          0.012841
                                40.117132         -0.08591
                                20.119649         0.117982
                                10.171676         0.630164
                                5.601641          -0.600344
                                2.864122          -1.24906
                                1.592779          -0.329498
                                0.826525          2.592469
                                0.263975          -1.004481
                                0.145302          -1.379514
                                0.068195          1.046842
                                0.031465          0.324676
[INPUT] 0    0    [1    /1   ]  0.031465             1
[INPUT] 1    0    [13   /1   ]  158.770986        -0.000153
                                75.802876         0.001893
                                44.547824         0.010461
                                31.445269         -0.045141
                                13.080125         -0.084201
                                7.788616          0.104973
                                4.19504           0.307714
                                2.362276          0.368563
                                1.302584          0.286336
                                0.660704          0.095156
                                0.249042          0.005851
                                0.091781          -3.4e-05
                                0.048931          0.000252
[INPUT] 1    0    [13   /1   ]  158.770986        5.3e-05
                                75.802876         -0.000571
                                44.547824         -0.001073
                                31.445269         0.007463
                                13.080125         0.018676
                                7.788616          -0.02809
                                4.19504           -0.054438
                                2.362276          -0.093744
                                1.302584          -0.054169
                                0.660704          -0.007972
                                0.249042          0.356198
                                0.091781          0.412399
                                0.048931          0.361321
[INPUT] 1    0    [13   /1   ]  158.770986        -0.00017
                                75.802876         0.000604
                                44.547824         -0.019987
                                31.445269         0.061153
                                13.080125         0.067317
                                7.788616          -0.139211
                                4.19504           -0.527041
                                2.362276          -0.176194
                                1.302584          0.037129
                                0.660704          1.079322
                                0.249042          -0.050149
                                0.091781          -0.688971
                                0.048931          0.037331
[INPUT] 1    0    [13   /1   ]  158.770986        -0.000781
                                75.802876         0.007855
                                44.547824         -0.008671
                                31.445269         -0.040553
                                13.080125         -0.200062
                                7.788616          0.528599
                                4.19504           0.528552
                                2.362276          0.243576
                                1.302584          -1.807182
                                0.660704          0.629496
                                0.249042          1.137613
                                0.091781          -1.06715
                                0.048931          0.02219
[INPUT] 1    0    [1    /1   ]  0.048931             1
[INPUT] 2    0    [11   /1   ]  270.014061        -1.6e-05
                                100.161579        0.000696
                                43.530609         0.013536
                                21.262419         0.06935
                                10.577821         0.149559
                                5.34362           0.239588
                                2.704857          0.286744
                                1.353018          0.271459
                                0.660873          0.202426
                                0.309149          0.103307
                                0.133879          0.023211
[INPUT] 2    0    [11   /1   ]  270.014061        1.3e-05
                                100.161579        -0.000889
                                43.530609         -0.01864
                                21.262419         -0.094646
                                10.577821         -0.215659
                                5.34362           -0.322469
                                2.704857          -0.197529
                                1.353018          0.164448
                                0.660873          0.410017
                                0.309149          0.327838
                                0.133879          0.105749
[INPUT] 2    0    [11   /1   ]  270.014061        7e-06
                                100.161579        0.000868
                                43.530609         0.021631
                                21.262419         0.107748
                                10.577821         0.278997
                                5.34362           0.314543
                                2.704857          -0.241926
                                1.353018          -0.602415
                                0.660873          -0.118013
                                0.309149          0.545482
                                0.133879          0.363829
[INPUT] 2    0    [1    /1   ]  0.133879             1
[INPUT] 3    0    [1    /1   ]  1.520399             1
[INPUT] 3    0    [1    /1   ]  6.000349             1
[INPUT] 4    0    [1    /1   ]  4.099533             1

nuclear repulsion = 0
number of shells = 17
number of NR pGTOs = 405
number of NR cGTOs = 63
basis = ccecp-ccpvtz
ecp = ccecp
CPU time:         6.62


******** <class 'pyscf.scf.hf.RHF'> ********
method = RHF
initial guess = minao
damping factor = 0
level_shift factor = 0
DIIS = <class 'pyscf.scf.diis.CDIIS'>
diis_start_cycle = 1
diis_space = 8
SCF conv_tol = 1e-09
SCF conv_tol_grad = None
SCF max_cycles = 200
direct_scf = True
direct_scf_tol = 1e-13
chkfile to save SCF result = pyscf.chk
max_memory 507488 MB (current use 106 MB)
Set gradient conv threshold to 3.16228e-05
E1 = -407.61305923864234  E_coul = 182.34418894905792
init E= -225.268870289584
cond(S) = 60.35740593062641
    CPU time for initialize scf    242.96 sec, wall time      5.46 sec
  HOMO = -0.296646785665151  LUMO = 0.0580988381630645
  mo_energy =
[-5.8129958  -3.89417121 -3.89417121 -3.89417121 -0.7347611  -0.7347611
 -0.7347611  -0.7347611  -0.7347611  -0.29664679  0.05809884  0.05809884
  0.05809884  0.19229859  0.29601443  0.29601443  0.29601443  0.39337475
  0.39337475  0.39337475  0.39337475  0.39337475  0.86856989  1.38523944
  1.38523944  1.38523944  1.77417972  1.77417972  1.77417972  1.77417972
  1.77417972  4.47652675  4.53053502  4.53053502  4.53053502  4.53053502
  4.53053502  4.53053502  4.53053502  6.55085855  6.55085855  6.55085855
  7.43740236  7.43740236  7.43740236  7.43740236  7.43740236 16.73013509
 16.73013509 16.73013509 16.73013509 16.73013509 16.73013509 16.73013509
 16.92670714 16.92670714 16.92670714 16.92670714 16.92670714 16.92670714
 16.92670714 16.92670714 16.92670714]
E1 = -406.41851270515167  E_coul = 181.14552018255623
cycle= 1 E= -225.272992522595  delta_E= -0.00412  |g|= 0.179  |ddm|= 0.0936
    CPU time for cycle= 1     22.86 sec, wall time      0.18 sec
  HOMO = -0.301857600921754  LUMO = 0.0569012976428298
  mo_energy =
[-5.88674383 -3.96306964 -3.96306964 -3.96306964 -0.79759453 -0.79759453
 -0.79759453 -0.79759453 -0.79759453 -0.3018576   0.0569013   0.0569013
  0.0569013   0.190185    0.29282607  0.29282607  0.29282607  0.39079854
  0.39079854  0.39079854  0.39079854  0.39079854  0.86048023  1.37229345
  1.37229345  1.37229345  1.7537333   1.7537333   1.7537333   1.7537333
  1.7537333   4.4321558   4.50046473  4.50046473  4.50046473  4.50046473
  4.50046473  4.50046473  4.50046473  6.49452031  6.49452031  6.49452031
  7.36490711  7.36490711  7.36490711  7.36490711  7.36490711 16.64293215
 16.64293215 16.64293215 16.64293215 16.64293215 16.64293215 16.64293215
 16.8655155  16.8655155  16.8655155  16.8655155  16.8655155  16.8655155
 16.8655155  16.8655155  16.8655155 ]
E1 = -407.8162494470932  E_coul = 182.54346022551655
cycle= 2 E= -225.272789221577  delta_E= 0.000203  |g|=  0.2  |ddm|= 0.0783
    CPU time for cycle= 2     30.61 sec, wall time      0.24 sec
  HOMO = -0.298532967487874  LUMO = 0.0578880568896058
  mo_energy =
[-5.84511739 -3.92320995 -3.92320995 -3.92320995 -0.76367342 -0.76367342
 -0.76367342 -0.76367342 -0.76367342 -0.29853297  0.05788806  0.05788806
  0.05788806  0.1914605   0.29519448  0.29519448  0.29519448  0.39244407
  0.39244407  0.39244407  0.39244407  0.39244407  0.86537936  1.38087342
  1.38087342  1.38087342  1.76569303  1.76569303  1.76569303  1.76569303
  1.76569303  4.45715282  4.51873771  4.51873771  4.51873771  4.51873771
  4.51873771  4.51873771  4.51873771  6.5265907   6.5265907   6.5265907
  7.4042637   7.4042637   7.4042637   7.4042637   7.4042637  16.69019447
 16.69019447 16.69019447 16.69019447 16.69019447 16.69019447 16.69019447
 16.89999678 16.89999678 16.89999678 16.89999678 16.89999678 16.89999678
 16.89999678 16.89999678 16.89999678]
E1 = -407.108343260186  E_coul = 181.83332356320793
cycle= 3 E= -225.275019696978  delta_E= -0.00223  |g|= 0.00411  |ddm|= 0.0394
    CPU time for cycle= 3     24.03 sec, wall time      0.19 sec
  HOMO = -0.298364705766469  LUMO = 0.0579364239519766
  mo_energy =
[-5.84391155 -3.92199762 -3.92199762 -3.92199762 -0.763138   -0.763138
 -0.763138   -0.763138   -0.763138   -0.29836471  0.05793642  0.05793642
  0.05793642  0.19152327  0.29533284  0.29533284  0.29533284  0.39248417
  0.39248417  0.39248417  0.39248417  0.39248417  0.8655834   1.38129354
  1.38129354  1.38129354  1.76605867  1.76605867  1.76605867  1.76605867
  1.76605867  4.45785685  4.51942785  4.51942785  4.51942785  4.51942785
  4.51942785  4.51942785  4.51942785  6.52747431  6.52747431  6.52747431
  7.40501148  7.40501148  7.40501148  7.40501148  7.40501148 16.69110623
 16.69110623 16.69110623 16.69110623 16.69110623 16.69110623 16.69110623
 16.90093588 16.90093588 16.90093588 16.90093588 16.90093588 16.90093588
 16.90093588 16.90093588 16.90093588]
E1 = -407.1009295344379  E_coul = 181.82590844673166
cycle= 4 E= -225.275021087706  delta_E= -1.39e-06  |g|= 0.00017  |ddm|= 0.00149
    CPU time for cycle= 4     31.16 sec, wall time      0.24 sec
  HOMO = -0.29838522547906  LUMO = 0.0579120258471254
  mo_energy =
[-5.8439823  -3.92208549 -3.92208549 -3.92208549 -0.76322695 -0.76322695
 -0.76322695 -0.76322695 -0.76322695 -0.29838523  0.05791203  0.05791203
  0.05791203  0.19151853  0.29530378  0.29530378  0.29530378  0.39245196
  0.39245196  0.39245196  0.39245196  0.39245196  0.86555224  1.38123192
  1.38123192  1.38123192  1.76598437  1.76598437  1.76598437  1.76598437
  1.76598437  4.45779331  4.51932484  4.51932484  4.51932484  4.51932484
  4.51932484  4.51932484  4.51932484  6.52739802  6.52739802  6.52739802
  7.40493234  7.40493234  7.40493234  7.40493234  7.40493234 16.69102098
 16.69102098 16.69102098 16.69102098 16.69102098 16.69102098 16.69102098
 16.90083846 16.90083846 16.90083846 16.90083846 16.90083846 16.90083846
 16.90083846 16.90083846 16.90083846]
E1 = -407.10068623494635  E_coul = 181.82566513715582
cycle= 5 E= -225.275021097791  delta_E= -1.01e-08  |g|= 5.56e-05  |ddm|= 0.000297
    CPU time for cycle= 5     19.92 sec, wall time      0.16 sec
  HOMO = -0.2983868626821  LUMO = 0.0579070059200511
  mo_energy =
[-5.84397983 -3.9220857  -3.9220857  -3.9220857  -0.76323099 -0.76323099
 -0.76323099 -0.76323099 -0.76323099 -0.29838686  0.05790701  0.05790701
  0.05790701  0.19151853  0.29529945  0.29529945  0.29529945  0.39244559
  0.39244559  0.39244559  0.39244559  0.39244559  0.86554904  1.38122509
  1.38122509  1.38122509  1.7659766   1.7659766   1.7659766   1.7659766
  1.7659766   4.4577914   4.51931752  4.51931752  4.51931752  4.51931752
  4.51931752  4.51931752  4.51931752  6.52739638  6.52739638  6.52739638
  7.40493129  7.40493129  7.40493129  7.40493129  7.40493129 16.69102438
 16.69102438 16.69102438 16.69102438 16.69102438 16.69102438 16.69102438
 16.90084014 16.90084014 16.90084014 16.90084014 16.90084014 16.90084014
 16.90084014 16.90084014 16.90084014]
E1 = -407.1003981227437  E_coul = 181.82537702431634
cycle= 6 E= -225.275021098427  delta_E= -6.37e-10  |g|= 4.8e-06  |ddm|= 0.000102
    CPU time for cycle= 6     20.46 sec, wall time      0.16 sec
  HOMO = -0.298387784793212  LUMO = 0.0579062080027738
  mo_energy =
[-5.84398487 -3.92209058 -3.92209058 -3.92209058 -0.76323553 -0.76323553
 -0.76323553 -0.76323553 -0.76323553 -0.29838778  0.05790621  0.05790621
  0.05790621  0.19151824  0.29529847  0.29529847  0.29529847  0.39244457
  0.39244457  0.39244457  0.39244457  0.39244457  0.86554766  1.38122274
  1.38122274  1.38122274  1.76597385  1.76597385  1.76597385  1.76597385
  1.76597385  4.4577878   4.51931342  4.51931342  4.51931342  4.51931342
  4.51931342  4.51931342  4.51931342  6.5273923   6.5273923   6.5273923
  7.40492684  7.40492684  7.40492684  7.40492684  7.40492684 16.69101919
 16.69101919 16.69101919 16.69101919 16.69101919 16.69101919 16.69101919
 16.90083518 16.90083518 16.90083518 16.90083518 16.90083518 16.90083518
 16.90083518 16.90083518 16.90083518]
E1 = -407.1004256535902  E_coul = 181.8254045551566
Extra cycle  E= -225.275021098434  delta_E= -6.25e-12  |g|= 5.53e-06  |ddm|= 1.2e-05
    CPU time for scf_cycle    412.44 sec, wall time      6.79 sec
    CPU time for SCF    412.44 sec, wall time      6.79 sec
converged SCF energy = -225.275021098434
