#INFO: **** input file is /home/nkousuke/lustre/toBeSync/turboRVB/05turbo-genius-development/turbogenius_paper/04data/sanity_checks/03pyscf_HF_turbo_VMC_via_trexio/00open_boundary/results/Ni/pyscf-HF-workflow/run.py ****

from pyscf_wrapper import Pyscf_wrapper

# input variables
pyscf_chkfile="pyscf.chk"
structure_file="Ni.xyz"

# input variables
omp_num_threads=128
charge=0
spin=2
basis="ccecp-ccpvtz"
ecp="ccecp"
scf_method="HF"
dft_xc="NA"
solver_newton=False
MP2_flag=False
CCSD_flag=False
pyscf_output="out.pyscf"
twist_average=False
exp_to_discard=0.0
kpt=[0.0, 0.0, 0.0]
kpt_grid=[1, 1, 1]
smearing_method="fermi"
smearing_sigma=0.0

pyscf_calc=Pyscf_wrapper(
                        structure_file=structure_file,
                        chkfile=pyscf_chkfile,
                        )

pyscf_calc.run_pyscf(
                  omp_num_threads=omp_num_threads,
                  charge=charge,
                  spin=spin,
                  basis=basis,
                  ecp=ecp,
                  scf_method=scf_method,
                  dft_xc=dft_xc,
                  solver_newton=solver_newton,
                  MP2_flag=MP2_flag,
                  CCSD_flag=CCSD_flag,
                  pyscf_output=pyscf_output,
                  twist_average=twist_average,
                  exp_to_discard=exp_to_discard,
                  kpt=kpt,
                  kpt_grid=kpt_grid,
                  smearing_method=smearing_method,
                  smearing_sigma=smearing_sigma
                  )
                #INFO: ******************** input file end ********************


System: uname_result(system='Linux', node='spcc-238', release='5.4.0-66-generic', version='#74-Ubuntu SMP Wed Jan 27 22:54:38 UTC 2021', machine='x86_64', processor='x86_64')  Threads 128
Python 3.7.3 (default, Mar 27 2019, 22:11:17) 
[GCC 7.3.0]
numpy 1.20.1  scipy 1.7.3
Date: Mon Dec 19 18:11:30 2022
PySCF version 2.0.1
PySCF path  /home/nkousuke/application/anaconda3/lib/python3.7/site-packages/pyscf

[CONFIG] conf_file /home/nkousuke/.pyscf_conf.py
[INPUT] verbose = 5
[INPUT] max_memory = 506297.30859375 
[INPUT] num. atoms = 1
[INPUT] num. electrons = 18
[INPUT] charge = 0
[INPUT] spin (= nelec alpha-beta = 2S) = 2
[INPUT] symmetry False subgroup None
[INPUT] Mole.unit = A
[INPUT]  1 Ni     0.000000000000   0.000000000000   0.000000000000 AA    0.000000000000   0.000000000000   0.000000000000 Bohr
[INPUT] ---------------- BASIS SET ---------------- 
[INPUT] l, kappa, [nprim/nctr], expnt,             c_1 c_2 ...
[INPUT] Ni
[INPUT] 0    0    [13   /1   ]  97.161835         0.000709
                                51.187866         -0.012399
                                26.996725         0.10722
                                15.523536         -0.124556
                                8.916168          -0.351023
                                4.795806          -0.025758
                                2.619926          0.498948
                                1.330111          0.568986
                                0.668901          0.191121
                                0.230439          0.010278
                                0.121518          -0.003627
                                0.057951          0.001295
                                0.027201          -0.000307
[INPUT] 0    0    [13   /1   ]  97.161835         -0.00014
                                51.187866         0.002756
                                26.996725         -0.025482
                                15.523536         0.032182
                                8.916168          0.086226
                                4.795806          0.001104
                                2.619926          -0.13579
                                1.330111          -0.215724
                                0.668901          -0.158367
                                0.230439          0.143499
                                0.121518          0.443672
                                0.057951          0.472558
                                0.027201          0.110173
[INPUT] 0    0    [13   /1   ]  97.161835         0.000121
                                51.187866         0.003322
                                26.996725         -0.045785
                                15.523536         0.053415
                                8.916168          0.22227
                                4.795806          -0.073065
                                2.619926          -0.293998
                                1.330111          -0.668938
                                0.668901          0.297504
                                0.230439          1.233748
                                0.121518          0.129317
                                0.057951          -0.603407
                                0.027201          -0.533062
[INPUT] 0    0    [13   /1   ]  97.161835         0.000434
                                51.187866         0.004848
                                26.996725         -0.087818
                                15.523536         0.121852
                                8.916168          0.454218
                                4.795806          -0.245765
                                2.619926          -0.997345
                                1.330111          -0.834586
                                0.668901          2.285675
                                0.230439          0.251538
                                0.121518          -1.988796
                                0.057951          0.347602
                                0.027201          0.82415
[INPUT] 0    0    [1    /1   ]  0.027201             1
[INPUT] 1    0    [13   /1   ]  148.08763         5.5e-05
                                77.452187         -0.000548
                                40.915636         0.006979
                                22.575667         -0.023658
                                13.218268         -0.075682
                                7.232093          0.027253
                                4.05487           0.284778
                                2.122089          0.427632
                                1.092769          0.309937
                                0.54824           0.088535
                                0.238886          0.006427
                                0.084667          0.000708
                                0.038921          0.000186
[INPUT] 1    0    [13   /1   ]  148.08763         2.7e-05
                                77.452187         -8.8e-05
                                40.915636         -0.000773
                                22.575667         0.003345
                                13.218268         0.019405
                                7.232093          -0.014288
                                4.05487           -0.054527
                                2.122089          -0.116454
                                1.092769          -0.060236
                                0.54824           -0.023928
                                0.238886          0.347869
                                0.084667          0.522626
                                0.038921          0.276471
[INPUT] 1    0    [13   /1   ]  148.08763         -0.000237
                                77.452187         0.001456
                                40.915636         -0.009745
                                22.575667         0.037799
                                13.218268         0.052521
                                7.232093          -0.035006
                                4.05487           -0.455577
                                2.122089          -0.368306
                                1.092769          0.100392
                                0.54824           1.076652
                                0.238886          -0.045326
                                0.084667          -0.703186
                                0.038921          0.00458
[INPUT] 1    0    [13   /1   ]  148.08763         -0.00026
                                77.452187         0.001071
                                40.915636         0.002322
                                22.575667         -0.03214
                                13.218268         -0.134136
                                7.232093          0.229062
                                4.05487           0.752239
                                2.122089          0.205535
                                1.092769          -1.69291
                                0.54824           0.436295
                                0.238886          1.219514
                                0.084667          -0.945516
                                0.038921          -0.062232
[INPUT] 1    0    [1    /1   ]  0.038921             1
[INPUT] 2    0    [11   /1   ]  177.900125        4.9e-05
                                57.372112         0.007519
                                29.881432         0.036455
                                13.971757         0.086901
                                6.841152          0.180568
                                3.379983          0.268187
                                1.651827          0.296756
                                0.799251          0.251558
                                0.388057          0.162319
                                0.191191          0.072119
                                0.093358          0.023689
[INPUT] 2    0    [11   /1   ]  177.900125        -5.3e-05
                                57.372112         -0.00885
                                29.881432         -0.041916
                                13.971757         -0.104691
                                6.841152          -0.219464
                                3.379983          -0.283712
                                1.651827          -0.122127
                                0.799251          0.190123
                                0.388057          0.376598
                                0.191191          0.295122
                                0.093358          0.178252
[INPUT] 2    0    [11   /1   ]  177.900125        7.9e-05
                                57.372112         0.011442
                                29.881432         0.053972
                                13.971757         0.141068
                                6.841152          0.302294
                                3.379983          0.236558
                                1.651827          -0.291311
                                0.799251          -0.581758
                                0.388057          -0.024063
                                0.191191          0.389387
                                0.093358          0.430833
[INPUT] 2    0    [1    /1   ]  0.093358             1
[INPUT] 3    0    [1    /1   ]  1.144322             1
[INPUT] 3    0    [1    /1   ]  4.588601             1
[INPUT] 4    0    [1    /1   ]  2.89668              1

nuclear repulsion = 0
number of shells = 17
number of NR pGTOs = 405
number of NR cGTOs = 63
basis = ccecp-ccpvtz
ecp = ccecp
CPU time:         6.34


******** <class 'pyscf.scf.rohf.ROHF'> ********
method = ROHF-RHF
initial guess = minao
damping factor = 0
level_shift factor = 0
DIIS = <class 'pyscf.scf.diis.CDIIS'>
diis_start_cycle = 1
diis_space = 8
SCF conv_tol = 1e-09
SCF conv_tol_grad = None
SCF max_cycles = 200
direct_scf = True
direct_scf_tol = 1e-13
chkfile to save SCF result = pyscf.chk
max_memory 506297 MB (current use 106 MB)
num. doubly occ = 8  num. singly occ = 2
Set gradient conv threshold to 3.16228e-05
E1 = -317.1538821952518  Ecoul = 149.3293465599523
init E= -167.824535635299
cond(S) = 156.08897366947295
    CPU time for initialize scf    199.21 sec, wall time      5.02 sec

WARN: HOMO 0.17062710878721 >= LUMO 0.170627108787206

                  Roothaan           | alpha              | beta
  Highest 2-occ = 0.0864824663237863 |  0.086482466323785 |  0.086482466323785
  Lowest 0-occ =   0.170627108787206 |  0.170627108787208 |  0.170627108787208
  1-occ =          0.170627108787206 |  0.170627108787206 |  0.170627108787206
  1-occ =           0.17062710878721 |  0.170627108787208 |  0.170627108787208
  Roothaan mo_energy =
[-3.95313862 -2.28852083 -2.28852083 -2.28852083  0.05376691  0.08648247
  0.08648247  0.08648247  0.17062711  0.17062711  0.17062711  0.17062711
  0.17062711  0.28753581  0.36998115  0.36998115  0.36998115  0.38917092
  0.38917092  0.38917092  0.38917092  0.38917092  1.01964648  1.54466272
  1.54466272  1.54466272  1.58266268  1.58266268  1.58266268  1.58266268
  1.58266268  4.06687834  4.06687834  4.06687834  4.06687834  4.06687834
  4.06687834  4.06687834  4.11727075  6.00883104  6.00883104  6.00883104
  6.00883104  6.00883104  6.37560654  6.37560654  6.37560654 13.06536692
 13.06536692 13.06536692 13.06536692 13.06536692 13.06536692 13.06536692
 13.06536692 13.06536692 14.08223554 14.08223554 14.08223554 14.08223554
 14.08223554 14.08223554 14.08223554]
E1 = -205.46895751283665  Ecoul = 58.80061049574583
cycle= 1 E= -146.668347017091  delta_E= 21.2  |g|= 7.79  |ddm|=  5.8
    CPU time for cycle= 1     15.75 sec, wall time      0.12 sec
  HOMO = -2.88200213664527  LUMO = -2.34691400777406
                  Roothaan           | alpha              | beta
  Highest 2-occ =  -6.13145127380681 |   -6.1513066384197 |  -6.06592326012986
  Lowest 0-occ =   -2.34691400777406 |  -2.37087020800216 |  -2.32407062458649
  1-occ =          -6.09892714109314 |  -6.11311799549428 |  -6.08473376009241
  1-occ =          -2.88200213664527 |  -2.90757249960773 |  -2.85643242277537
  Roothaan mo_energy =
[-11.40841951  -9.51197236  -9.51187239  -9.50178153  -6.42091359
  -6.42087754  -6.13180076  -6.13145127  -6.09892714  -2.88200214
  -2.34691401  -2.34675882  -2.33109895  -1.58615086  -1.58595776
  -1.56259503  -1.56220343  -1.53998308  -0.90265468  -0.66344232
  -0.66334623  -0.65324641  -0.54711128  -0.54708662  -0.54229288
  -0.54222959  -0.53427776  -0.534181    -0.52750569  -0.28420034
  -0.28411304  -0.27313567  -0.23427323  -0.23424527  -0.1957036
  -0.11617839  -0.11611704  -0.10975534   0.57872628   0.57875086
   0.59318076   0.59345296   0.59483688   0.67235276   1.20440805
   1.20461335   1.22591111   6.49605317   6.49605383   6.50869882
   6.50871132   6.5183774    6.51854452   6.52214138   6.67851717
   6.6785172    6.69812268   6.69813559   6.70660681   6.70674044
   6.70964639   6.71018068   6.71080361]
E1 = -340.3878924430486  Ecoul = 184.86903119631526
cycle= 2 E= -155.518861246733  delta_E= -8.85  |g|= 12.4  |ddm|= 6.01
    CPU time for cycle= 2     28.16 sec, wall time      0.22 sec

WARN: HOMO -0.152257533643975 >= LUMO -2.42587178217581

                  Roothaan           | alpha              | beta
  Highest 2-occ =  -2.65698593329386 |    2.4947460841613 |   2.58002111028611
  Lowest 0-occ =   -2.42587178217581 |  0.409105106973237 |  0.422719443901771
  1-occ =          -0.15522705025694 |  0.409057788180193 |  0.422739825106223
  1-occ =         -0.152257533643975 |  0.403710404727895 |  0.419412761208151
  Roothaan mo_energy =
[-7.68626735 -5.86610586 -5.86351274 -5.86345212 -2.87444844 -2.87393567
 -2.65743735 -2.65698593 -2.42587178 -1.29139011 -0.84859059 -0.84821755
 -0.84670811 -0.30081537 -0.30071964 -0.29193728 -0.28868958 -0.28120471
 -0.28117815 -0.15522705 -0.15516788 -0.15225753  0.16461786  0.164686
  0.17106798  0.17599477  0.17600649  0.18548482  0.21309887  0.21321186
  0.21730773  1.50474731  1.50475079  1.51014686  1.51018802  1.51328391
  1.51404048  1.51447286  1.81394752  2.8603771   2.86053553  2.86834439
  2.86845404  2.88194708  3.42987795  3.43248748  3.43345578  9.62091527
  9.62285493  9.62296947  9.62684509  9.62685522  9.62773281  9.62779511
  9.632164    9.63216718 10.21284338 10.21285028 10.21930914 10.21940832
 10.22319516 10.22328063 10.2234586 ]
E1 = -307.96588067996254  Ecoul = 141.7762950767715
cycle= 3 E= -166.189585603191  delta_E= -10.7  |g|= 4.26  |ddm|=  2.7
    CPU time for cycle= 3     32.25 sec, wall time      0.25 sec

WARN: HOMO -0.0300662093010798 >= LUMO -0.889069700426327

                  Roothaan           | alpha              | beta
  Highest 2-occ =  -1.71372388912117 | -0.0447649194623397 | -0.040629239605832
  Lowest 0-occ =  -0.889069700426327 | 0.0690469336341921 |  0.107302060441421
  1-occ =         -0.552792580200727 | -0.0398261863761083 | -0.0250741800908762
  1-occ =         -0.0300662093010798 | 0.0671486388118161 |  0.220595367358898
  Roothaan mo_energy =
[-6.32105408 -4.57850982 -4.56057341 -4.5561868  -1.86867939 -1.86447893
 -1.71420094 -1.71372389 -0.8890697  -0.55279258 -0.31670613 -0.30370351
 -0.2988015  -0.0595408  -0.03006621 -0.02260997  0.0181393   0.01838601
  0.01944617  0.02379504  0.03144161  0.03498747  0.42734648  0.53736785
  0.53863579  0.54411346  0.55782753  0.55824632  0.56280706  0.58772602
  0.59696909  2.46210677  2.46381605  2.46491511  2.47172069  2.47508628
  2.49875858  2.49879506  2.60876487  3.90350561  3.90825232  3.96984663
  3.97004194  4.01828959  4.41187086  4.48649197  4.49029477 10.88971408
 10.89799223 10.9035415  10.92977675 10.93012855 10.96724453 10.96725109
 10.99679905 10.99679914 11.60331229 11.6063255  11.60723398 11.60874198
 11.61145095 11.67475394 11.674756  ]
E1 = -307.0311938079809  Ecoul = 139.48229095446084
cycle= 4 E= -167.54890285352  delta_E= -1.36  |g|= 2.29  |ddm|=  3.3
    CPU time for cycle= 4     29.18 sec, wall time      0.23 sec

WARN: HOMO -0.00686476056239939 >= LUMO -0.0956473369604269

                  Roothaan           | alpha              | beta
  Highest 2-occ = -0.899247056506092 | -0.229668905503619 | -0.217530540315346
  Lowest 0-occ =  -0.0956473369604269 | 0.0230122636907005 | 0.0674523666040821
  1-occ =          -0.34327408135667 | -0.324435229925426 | 0.0585235412366263
  1-occ =         -0.00686476056239939 | -0.000964868236740753 | 0.0830495028144905
  Roothaan mo_energy =
[-5.38063764e+00 -3.64544846e+00 -3.63767455e+00 -3.63439753e+00
 -1.00690723e+00 -1.00256223e+00 -8.99484911e-01 -8.99247057e-01
 -3.43274081e-01 -9.56473370e-02 -2.63722852e-02 -2.06122108e-02
 -6.86476056e-03  6.73938922e-02  7.18813512e-02  1.47370606e-01
  1.48585406e-01  1.94093175e-01  1.94162320e-01  2.03183296e-01
  2.05519493e-01  2.23742020e-01  6.46847313e-01  9.60481766e-01
  9.69844452e-01  9.73630880e-01  9.93774345e-01  9.93853161e-01
  1.01170236e+00  1.01993761e+00  1.05032696e+00  3.20252420e+00
  3.20935920e+00  3.20960184e+00  3.22034486e+00  3.22413388e+00
  3.23194157e+00  3.23294974e+00  3.23299231e+00  4.71169322e+00
  4.71532605e+00  4.76638830e+00  4.76643869e+00  4.81211126e+00
  5.18657991e+00  5.24657200e+00  5.25058500e+00  1.17987514e+01
  1.18058624e+01  1.18099001e+01  1.18317742e+01  1.18320013e+01
  1.18609568e+01  1.18609609e+01  1.18774285e+01  1.18774286e+01
  1.25680172e+01  1.25682722e+01  1.25685871e+01  1.25717065e+01
  1.25769214e+01  1.26171661e+01  1.26171674e+01]
E1 = -302.8471113755116  Ecoul = 134.65481418153576
cycle= 5 E= -168.192297193976  delta_E= -0.643  |g|= 0.778  |ddm|= 4.04
    CPU time for cycle= 5     29.17 sec, wall time      0.23 sec
  HOMO = -0.096777105559733  LUMO = 0.0354312896189447
                  Roothaan           | alpha              | beta
  Highest 2-occ =  -0.72328362011104 | -0.504097042835861 | -0.492544162973403
  Lowest 0-occ =  0.0354312896189447 |  0.029308367363403 | 0.0670492134251506
  1-occ =           -0.2055759828154 |   -0.3591423764388 | 0.0255446136209216
  1-occ =         -0.096777105559733 | -0.161438552258933 |  0.137840860102529
  Roothaan mo_energy =
[-5.17305067 -3.44618255 -3.43250413 -3.43140718 -0.81578045 -0.81487506
 -0.72336273 -0.72328362 -0.20557598 -0.09677711  0.03543129  0.03744224
  0.04508108  0.1285024   0.21495992  0.21583408  0.2305427   0.25445108
  0.25500663  0.25673398  0.25675511  0.28380508  0.73345166  1.10130853
  1.1020534   1.1178936   1.11790298  1.12049197  1.12377861  1.12635278
  1.1744671   3.34556595  3.36088128  3.36089994  3.37327244  3.37422885
  3.38266725  3.38565915  3.38565984  4.90136177  4.90197696  4.95396203
  4.95397968  4.98733518  5.36249867  5.42359275  5.42435136 11.97385019
 11.9827658  11.9835688  12.00817535 12.00818517 12.03943347 12.03943349
 12.06044888 12.06044888 12.7749152  12.775572   12.77830072 12.77875288
 12.77911604 12.83017156 12.83017161]
E1 = -300.5508487162549  Ecoul = 132.28337369613664
cycle= 6 E= -168.267475020118  delta_E= -0.0752  |g|=  0.2  |ddm|= 0.631
    CPU time for cycle= 6     15.36 sec, wall time      0.12 sec
  HOMO = -0.03067823923346  LUMO = 0.0444998544076049
                  Roothaan           | alpha              | beta
  Highest 2-occ = -0.678257462057572 | -0.635910204949977 | -0.626842270634774
  Lowest 0-occ =  0.0444998544076049 | 0.0265911941630911 | 0.0644969667749216
  1-occ =         -0.187287902999207 | -0.372500353902064 | 0.0147606467257955
  1-occ =          -0.03067823923346 |  -0.19444841361991 |  0.138954377479054
  Roothaan mo_energy =
[-5.11148741 -3.38549408 -3.37498248 -3.37457068 -0.76232429 -0.7608128
 -0.67826987 -0.67825746 -0.1872879  -0.03067824  0.04449985  0.04470064
  0.08515949  0.14448935  0.19395011  0.22705562  0.22721529  0.26235242
  0.26235523  0.26460675  0.26469083  0.29754833  0.75511126  1.12646598
  1.12697405  1.13473695  1.14135861  1.14136335  1.15114702  1.15196143
  1.2025555   3.38482864  3.4005131   3.40051456  3.41601607  3.41654682
  3.42043944  3.42043945  3.42637328  4.95519902  4.95624806  5.00469227
  5.00469864  5.0410208   5.41386517  5.47066148  5.47200373 12.02939806
 12.03775322 12.03876127 12.06194717 12.06196162 12.09115372 12.09115379
 12.10942321 12.10942321 12.83879104 12.83976498 12.84174092 12.84195516
 12.84332582 12.89116678 12.89116681]
E1 = -299.77425636638736  Ecoul = 131.50193262776364
cycle= 7 E= -168.272323738624  delta_E= -0.00485  |g|= 0.0135  |ddm|= 0.227
    CPU time for cycle= 7     20.94 sec, wall time      0.17 sec
  HOMO = -0.0308876252891613  LUMO = 0.044287533911014
                  Roothaan           | alpha              | beta
  Highest 2-occ = -0.676344133486696 | -0.678824588294508 | -0.670239550823348
  Lowest 0-occ =   0.044287533911014 | 0.0257154047213328 | 0.0630669955364161
  1-occ =         -0.185568072623181 | -0.379009430793177 | 0.00970785082864456
  1-occ =         -0.0308876252891613 | -0.199366459266134 |  0.134148504183569
  Roothaan mo_energy =
[-5.10983897 -3.38397111 -3.37326183 -3.3729695  -0.76075815 -0.75934282
 -0.67635209 -0.67634413 -0.18556807 -0.03088763  0.04428753  0.04434317
  0.08265384  0.14069486  0.19637196  0.22551343  0.225726    0.26111202
  0.26111447  0.26339504  0.26351155  0.29688177  0.75231417  1.12558093
  1.12608605  1.13376859  1.14037579  1.14037946  1.15053941  1.15105489
  1.20163033  3.38482234  3.40119899  3.40120008  3.41653172  3.41699749
  3.42116749  3.4211675   3.42671989  4.95611584  4.95706503  5.00604232
  5.00604724  5.04170368  5.41460926  5.47170137  5.47287689 12.03085704
 12.03931373 12.04017276 12.06351738 12.06352784 12.092867   12.09286704
 12.11141045 12.11141045 12.84044948 12.84126662 12.84359096 12.8438217
 12.84474427 12.89360108 12.89360109]
E1 = -299.72202967246466  Ecoul = 131.4493808305034
cycle= 8 E= -168.272648841961  delta_E= -0.000325  |g|= 0.00522  |ddm|= 0.0949
    CPU time for cycle= 8     19.43 sec, wall time      0.15 sec
  HOMO = -0.033984973584798  LUMO = 0.0432668058214006
                  Roothaan           | alpha              | beta
  Highest 2-occ = -0.678494669557417 | -0.681854445047536 |  -0.67313578907749
  Lowest 0-occ =  0.0432668058214006 | 0.0248728793721464 | 0.0622541428329891
  1-occ =         -0.187087684387687 | -0.380797603771523 | 0.00891477178033074
  1-occ =         -0.033984973584798 | -0.199078871994546 |  0.132329676720039
  Roothaan mo_energy =
[-5.11192899 -3.38592694 -3.37548486 -3.37521232 -0.76290853 -0.7615568
 -0.67850026 -0.67849467 -0.18708768 -0.03398497  0.04326681  0.04337222
  0.07882959  0.14058746  0.19842212  0.22438173  0.22455857  0.25990364
  0.25990523  0.26216109  0.2622594   0.295454    0.75078252  1.12379872
  1.12426136  1.13240877  1.13822011  1.13822306  1.14833331  1.14891473
  1.19984568  3.38292392  3.39877022  3.39877105  3.4141459   3.41457775
  3.41849163  3.41849164  3.42431657  4.95404599  4.95494777  5.00398633
  5.00399045  5.03945306  5.41280048  5.46958486  5.47070958 12.028843
 12.0372978  12.03811332 12.06141929 12.06142875 12.09069738 12.09069742
 12.10919609 12.10919609 12.83829992 12.83908208 12.84152283 12.84177983
 12.84254535 12.89173321 12.89173322]
E1 = -299.7407437313225  Ecoul = 131.4679768450041
cycle= 9 E= -168.272766886318  delta_E= -0.000118  |g|= 0.00388  |ddm|= 0.0294
    CPU time for cycle= 9     32.24 sec, wall time      0.25 sec
  HOMO = -0.0328525768576302  LUMO = 0.0437235344362779
                  Roothaan           | alpha              | beta
  Highest 2-occ = -0.675980000590415 | -0.680857388057536 | -0.672016833418181
  Lowest 0-occ =  0.0437235344362779 | 0.0251683563050494 |  0.062041987466387
  1-occ =         -0.185462866938618 | -0.381151479708901 | 0.0104426027602565
  1-occ =         -0.0328525768576302 | -0.198814982842308 |  0.132780117905577
  Roothaan mo_energy =
[-5.10917298 -3.38294219 -3.37300764 -3.3727478  -0.76001774 -0.75873631
 -0.67598484 -0.67598    -0.18546287 -0.03285258  0.04372353  0.04382905
  0.0785449   0.14124977  0.19854582  0.22501788  0.22519386  0.2601831
  0.260184    0.26277642  0.26287251  0.29620505  0.75182784  1.12545203
  1.12589202  1.13435618  1.13925328  1.13925573  1.14953761  1.15008469
  1.20152493  3.38485197  3.4009867   3.40098745  3.41665119  3.41706303
  3.42001259  3.42001261  3.42689642  4.95656444  4.95741769  5.00612835
  5.00613188  5.04175552  5.41556445  5.4715999   5.47266607 12.03184244
 12.04025488 12.04102788 12.06417545 12.06418402 12.09318956 12.09318959
 12.11140027 12.11140027 12.84109672 12.84183681 12.84431818 12.84456462
 12.84528375 12.89444686 12.89444687]
E1 = -299.75615716538624  Ecoul = 131.48332268147348
cycle= 10 E= -168.272834483913  delta_E= -6.76e-05  |g|= 0.00157  |ddm|= 0.031
    CPU time for cycle= 10     14.85 sec, wall time      0.12 sec
  HOMO = -0.0325519383203287  LUMO = 0.0437692253418575
                  Roothaan           | alpha              | beta
  Highest 2-occ = -0.674978227158907 | -0.680025510101319 | -0.671078716177341
  Lowest 0-occ =  0.0437692253418575 | 0.0254882033396611 | 0.0619347596890261
  1-occ =         -0.184824142538206 |  -0.38144661692763 | 0.0118896022184954
  1-occ =         -0.0325519383203287 | -0.198792484037877 |  0.133393185803924
  Roothaan mo_energy =
[-5.10797839 -3.38166483 -3.37198989 -3.37174266 -0.75873198 -0.75752228
 -0.67498252 -0.67497823 -0.18482414 -0.03255194  0.04376923  0.04385894
  0.0776326   0.14174075  0.19867091  0.22519106  0.22536597  0.26007644
  0.2600771   0.26287922  0.26297351  0.2963405   0.75210248  1.12603714
  1.1264555   1.13506342  1.13946784  1.13946996  1.14989432  1.15039275
  1.2020623   3.38564326  3.4018481   3.4018488   3.41767816  3.41807026
  3.42045174  3.42045176  3.4279481   4.95762936  4.95843498  5.00696666
  5.00696984  5.04267731  5.41677406  5.47239496  5.47340171 12.03321068
 12.04160589 12.04233712 12.06539804 12.06540575 12.09425606 12.09425609
 12.11231308 12.11231308 12.84232042 12.84301928 12.84554347 12.84577971
 12.84645146 12.89563228 12.89563228]
E1 = -299.7698236241469  Ecoul = 131.49697484568372
cycle= 11 E= -168.272848778463  delta_E= -1.43e-05  |g|= 0.000482  |ddm|= 0.0202
    CPU time for cycle= 11     15.34 sec, wall time      0.12 sec
  HOMO = -0.0324191607320901  LUMO = 0.043812926163678
                  Roothaan           | alpha              | beta
  Highest 2-occ = -0.674765936189988 |  -0.67928084688039 | -0.670250846260122
  Lowest 0-occ =   0.043812926163678 | 0.0257231851651352 | 0.0618952660368469
  1-occ =         -0.184619174423589 | -0.381663912833444 | 0.0123365523035558
  1-occ =         -0.0324191607320901 |  -0.19869819210485 |  0.133817502763862
  Roothaan mo_energy =
[-5.10774802 -3.38143641 -3.37176451 -3.37152406 -0.75845983 -0.75728994
 -0.67477021 -0.67476594 -0.18461917 -0.03241916  0.04381293  0.04389651
  0.07758003  0.14174258  0.19866397  0.2252497   0.22541327  0.26011616
  0.26011677  0.26292707  0.26301728  0.29637503  0.75220346  1.12617778
  1.12658265  1.13517806  1.13958911  1.13959113  1.15002535  1.15050794
  1.20218308  3.38580856  3.40204769  3.40204837  3.4178861   3.41826672
  3.4206286   3.42062863  3.42814996  4.95785527  4.95863525  5.00715629
  5.00715934  5.04287023  5.4169846   5.47259316  5.47356817 12.03346049
 12.04186235 12.04257113 12.06563156 12.0656388  12.09447358 12.0944736
 12.11251595 12.11251595 12.84257199 12.84324994 12.84579032 12.84601483
 12.84668084 12.89584629 12.89584629]
E1 = -299.7679785438443  Ecoul = 131.49512893416406
cycle= 12 E= -168.27284960968  delta_E= -8.31e-07  |g|= 0.000371  |ddm|= 0.00311
    CPU time for cycle= 12     15.86 sec, wall time      0.12 sec
  HOMO = -0.0324078762662307  LUMO = 0.0438254779449386
                  Roothaan           | alpha              | beta
  Highest 2-occ = -0.674783836242702 | -0.679383304169029 | -0.670351271837983
  Lowest 0-occ =  0.0438254779449386 | 0.0257227737506152 | 0.0618902733218361
  1-occ =         -0.184643556769257 | -0.381687069490789 | 0.0122917033915828
  1-occ =         -0.0324078762662307 | -0.198706440555028 |  0.133813466101246
  Roothaan mo_energy =
[-5.10777802 -3.38146863 -3.37177799 -3.3715502  -0.75845647 -0.75734332
 -0.67478775 -0.67478384 -0.18464356 -0.03240788  0.04382548  0.04390572
  0.07765995  0.14174193  0.19863965  0.22526425  0.22542154  0.26013551
  0.26013605  0.26294035  0.26302636  0.29639196  0.75220208  1.12619115
  1.12657578  1.1351769   1.13960387  1.13960572  1.15004796  1.15050604
  1.20218837  3.38579704  3.40204292  3.40204353  3.41788541  3.41824664
  3.4206393   3.42063932  3.42813841  4.95785363  4.9585957   5.00714494
  5.00714773  5.04285402  5.41695462  5.4726083   5.47353558 12.03342506
 12.04184573 12.04251982 12.06560316 12.06560971 12.09445316 12.09445318
 12.11250484 12.11250484 12.8425559  12.84320129 12.84577466 12.84598392
 12.84663187 12.89582177 12.89582178]
E1 = -299.7678444047325  Ecoul = 131.49499414054748
cycle= 13 E= -168.272850264185  delta_E= -6.55e-07  |g|= 0.000253  |ddm|= 0.00315
    CPU time for cycle= 13     23.53 sec, wall time      0.19 sec
  HOMO = -0.0324728698717026  LUMO = 0.0438033717005339
                  Roothaan           | alpha              | beta
  Highest 2-occ = -0.674892236700947 | -0.679391356720566 | -0.670362799354865
  Lowest 0-occ =  0.0438033717005339 | 0.0257152639578373 | 0.0618973319300184
  1-occ =         -0.184718516100753 | -0.381678907137358 | 0.0122714906461724
  1-occ =         -0.0324728698717026 |  -0.19870819131084 |  0.133802221060207
  Roothaan mo_energy =
[-5.10789004 -3.38158017 -3.37187718 -3.37167027 -0.75852278 -0.75750958
 -0.67489531 -0.67489224 -0.18471852 -0.03247287  0.04380337  0.04387744
  0.07763367  0.14172054  0.1986536   0.22523492  0.22537966  0.26010829
  0.26010873  0.26291393  0.2629922   0.29635883  0.75215487  1.12613733
  1.12648674  1.13510641  1.13953521  1.13953671  1.15000084  1.15041661
  1.20211793  3.38571345  3.40194107  3.40194158  3.41779786  3.41812585
  3.4205444   3.42054442  3.42803423  4.95778456  4.95845975  5.0070472
  5.00704949  5.04275793  5.41685303  5.47255671  5.47340017 12.03330955
 12.04176084 12.04237407 12.0654907  12.06549612 12.09434417 12.09434418
 12.11239874 12.11239874 12.84247249 12.84305994 12.84568987 12.84587088
 12.84649163 12.8957113  12.8957113 ]
E1 = -299.7682485771287  Ecoul = 131.4953978637466
cycle= 14 E= -168.272850713382  delta_E= -4.49e-07  |g|= 0.00018  |ddm|= 0.00447
    CPU time for cycle= 14     22.52 sec, wall time      0.17 sec
  HOMO = -0.0324500814633793  LUMO = 0.0438125432784269
                  Roothaan           | alpha              | beta
  Highest 2-occ = -0.674860605248378 | -0.679369116034369 | -0.670341879326712
  Lowest 0-occ =  0.0438125432784269 |  0.025719344846245 | 0.0619020874511782
  1-occ =         -0.184698851187075 | -0.381671554292944 |  0.012268415488657
  1-occ =         -0.0324500814633793 | -0.198709208954575 |  0.133800293890304
  Roothaan mo_energy =
[-5.10785707 -3.38154896 -3.37184038 -3.37164164 -0.75847415 -0.75750225
 -0.67486358 -0.67486061 -0.18469885 -0.03245008  0.04381254  0.04388275
  0.07765788  0.1417271   0.19864372  0.22524934  0.22538672  0.26011806
  0.26011846  0.26292433  0.2629993   0.29637022  0.75216814  1.12616306
  1.12649861  1.13512564  1.13955707  1.13955845  1.15003021  1.15042944
  1.20213827  3.38573765  3.40197027  3.40197073  3.41783283  3.41814789
  3.42057471  3.42057473  3.42806228  4.95782609  4.95847373  5.00707666
  5.00707877  5.04278657  5.41687975  5.47260244  5.47341155 12.03334151
 12.04180515 12.04239335 12.06552288 12.06552787 12.0943767  12.09437671
 12.11243192 12.11243192 12.84251717 12.8430804  12.84573376 12.84590325
 12.84651263 12.89574406 12.89574407]
E1 = -299.76793403530405  Ecoul = 131.49508326408744
cycle= 15 E= -168.272850771217  delta_E= -5.78e-08  |g|= 0.000169  |ddm|= 0.000645
    CPU time for cycle= 15     18.40 sec, wall time      0.14 sec
  HOMO = -0.0324671478529721  LUMO = 0.0438117647955803
                  Roothaan           | alpha              | beta
  Highest 2-occ = -0.674885322433201 | -0.679385827223791 | -0.670359307507839
  Lowest 0-occ =  0.0438117647955803 |   0.02571850653919 | 0.0619031230015309
  1-occ =         -0.184712862778883 | -0.381672583263832 | 0.0122584255845138
  1-occ =         -0.0324671478529721 | -0.198711474283451 |   0.13379591405607
  Roothaan mo_energy =
[-5.1078849  -3.381577   -3.37185561 -3.37167969 -0.75844784 -0.75758812
 -0.67488739 -0.67488532 -0.18471286 -0.03246715  0.04381176  0.0438742
  0.07764599  0.14171667  0.19865168  0.22524811  0.22537026  0.26011261
  0.26011292  0.26292152  0.26298813  0.29636138  0.75215876  1.1261651
  1.12646221  1.13510782  1.13954293  1.13954399  1.15003802  1.15039143
  1.2021216   3.38571735  3.40194656  3.40194693  3.41782588  3.41810484
  3.42055346  3.42055347  3.42803682  4.95783753  4.95841038  5.0070537
  5.00705532  5.04276274  5.41685457  5.47262647  5.4733423  12.03331382
 12.0418108  12.04233114 12.06549518 12.06549909 12.09434951 12.09434952
 12.1124057  12.1124057  12.84252121 12.84301921 12.84573516 12.84587447
 12.84645407 12.8957161  12.8957161 ]
E1 = -299.76798187200677  Ecoul = 131.49513095956968
cycle= 16 E= -168.272850912437  delta_E= -1.41e-07  |g|= 0.000151  |ddm|= 0.00107
    CPU time for cycle= 16     16.38 sec, wall time      0.13 sec
  HOMO = -0.0324639527247928  LUMO = 0.0438276340214747
                  Roothaan           | alpha              | beta
  Highest 2-occ =  -0.67487748718012 | -0.679379911959247 | -0.670353641735676
  Lowest 0-occ =  0.0438276340214747 | 0.0257243095376684 | 0.0619043199004707
  1-occ =          -0.18471188438695 | -0.381671222370688 | 0.0122620657959348
  1-occ =         -0.0324639527247928 |  -0.19871146022272 |  0.133794108428605
  Roothaan mo_energy =
[-5.10787775 -3.38157049 -3.37180336 -3.37171825 -0.75821916 -0.75780516
 -0.6748816  -0.67487749 -0.18471188 -0.03246395  0.04382763  0.04385813
  0.07764556  0.14172418  0.19864699  0.22528204  0.22534146  0.26011303
  0.26011305  0.26293918  0.26297158  0.29636293  0.75215917  1.12624442
  1.12638799  1.13511037  1.13954626  1.13954635  1.15013196  1.15030268
  1.20212527  3.38572207  3.4019511   3.4019513   3.41790257  3.4180376
  3.4205564   3.4205564   3.42804096  4.95799171  4.9582676   5.00706142
  5.00706156  5.04276948  5.41685985  5.47281773  5.47316299 12.03332252
 12.04195196 12.04220289 12.06550139 12.06550238 12.09435461 12.09435461
 12.11241156 12.11241156 12.84265735 12.84289691 12.84584279 12.84588196
 12.84636016 12.89572491 12.89572491]
E1 = -299.7680188141732  Ecoul = 131.49516750065789
cycle= 17 E= -168.272851313515  delta_E= -4.01e-07  |g|= 7.71e-05  |ddm|= 0.00409
    CPU time for cycle= 17     16.38 sec, wall time      0.13 sec
  HOMO = -0.032453385875663  LUMO = 0.0438465551452403
                  Roothaan           | alpha              | beta
  Highest 2-occ = -0.674861544187174 | -0.679378620056093 | -0.670351974274404
  Lowest 0-occ =  0.0438465551452403 | 0.0257441946058161 | 0.0619176704913104
  1-occ =         -0.184698926834544 | -0.381672446734211 | 0.0122645728531393
  1-occ =         -0.032453385875663 | -0.198710762635819 |  0.133796886381878
  Roothaan mo_energy =
[-5.10785931 -3.38155129 -3.37174566 -3.37173958 -0.75800433 -0.75797607
 -0.67486604 -0.67486154 -0.18469893 -0.03245339  0.04384656  0.04384869
  0.07765733  0.14172434  0.19864708  0.22531521  0.22531926  0.26011755
  0.26011763  0.26296001  0.26296225  0.2963701   0.75216733  1.12632469
  1.12633466  1.13512331  1.13955662  1.13955709  1.15022326  1.1502352
  1.20213809  3.38573619  3.40196977  3.40196984  3.41798457  3.41799416
  3.42057405  3.42057405  3.42806042  4.95813819  4.95815711  5.00707627
  5.00707697  5.04278557  5.41687631  5.47299427  5.47301831 12.03334385
 12.04208927 12.04210675 12.06552172 12.06552181 12.0943743  12.0943743
 12.11243108 12.11243108 12.84278813 12.84280454 12.84590105 12.84590141
 12.84634022 12.89574324 12.89574324]
E1 = -299.767971330397  Ecoul = 131.495119891624
cycle= 18 E= -168.272851438773  delta_E= -1.25e-07  |g|= 1.09e-05  |ddm|= 0.00357
    CPU time for cycle= 18     17.41 sec, wall time      0.14 sec
  HOMO = -0.0324570350606607  LUMO = 0.0438454432947101
                  Roothaan           | alpha              | beta
  Highest 2-occ = -0.674869609917805 | -0.679384114567768 | -0.670357532346954
  Lowest 0-occ =  0.0438454432947101 | 0.0257572483167503 | 0.0619316921232988
  1-occ =         -0.184703799511056 | -0.381672800391302 | 0.0122647573995912
  1-occ =         -0.0324570350606607 | -0.198711491324214 |  0.133796590004085
  Roothaan mo_energy =
[-5.10786655 -3.38155858 -3.37175046 -3.37174984 -0.75799922 -0.75799673
 -0.67486965 -0.67486961 -0.1847038  -0.03245704  0.04384544  0.04384562
  0.07764977  0.14172474  0.1986469   0.22531469  0.22531501  0.26011535
  0.26011537  0.26295884  0.26295906  0.29636678  0.75216423  1.1263242
  1.12632516  1.13511887  1.13955165  1.13955177  1.15022357  1.15022473
  1.20213255  3.38573062  3.40196228  3.40196231  3.41798129  3.41798226
  3.42056655  3.42056655  3.42805277  4.95814     4.95814169  5.0070697
  5.00706988  5.04277869  5.41687009  5.4729985   5.47300076 12.03333612
 12.04208944 12.04209107 12.06551396 12.06551397 12.09436642 12.09436642
 12.11242311 12.11242311 12.84278805 12.8427895  12.84589374 12.84589378
 12.84633243 12.89573564 12.89573564]
E1 = -299.76800435201716  Ecoul = 131.49515291249736
cycle= 19 E= -168.27285143952  delta_E= -7.47e-10  |g|= 2.36e-06  |ddm|= 0.000257
    CPU time for cycle= 19     21.98 sec, wall time      0.17 sec
  HOMO = -0.0324571845189941  LUMO = 0.0438455213975817
                  Roothaan           | alpha              | beta
  Highest 2-occ = -0.674869150949081 | -0.679382447174233 | -0.670355854723941
  Lowest 0-occ =  0.0438455213975817 |  0.025758378304192 | 0.0619326644901996
  1-occ =          -0.18470370583801 | -0.381672587960827 | 0.0122651550479619
  1-occ =         -0.0324571845189941 |  -0.19871126771717 |  0.133796970388069
  Roothaan mo_energy =
[-5.10786599 -3.38155811 -3.37174988 -3.37174932 -0.75799901 -0.75799651
 -0.67486935 -0.67486915 -0.18470371 -0.03245718  0.04384552  0.04384572
  0.07765027  0.14172466  0.19864705  0.22531473  0.22531512  0.2601154
  0.26011542  0.26295888  0.26295909  0.29636694  0.75216444  1.12632431
  1.12632522  1.13511897  1.13955191  1.13955197  1.15022379  1.15022489
  1.20213283  3.38573095  3.40196255  3.40196256  3.41798158  3.41798246
  3.42056684  3.42056684  3.42805299  4.95814036  4.95814205  5.00707032
  5.0070704   5.04277919  5.41687044  5.472999    5.47300117 12.03333647
 12.04208984 12.04209141 12.06551436 12.06551436 12.09436686 12.09436686
 12.11242363 12.11242363 12.84278856 12.84279001 12.84589428 12.84589431
 12.84633294 12.89573633 12.89573633]
E1 = -299.7680009328096  Ecoul = 131.49514949328545
Extra cycle  E= -168.272851439524  delta_E= -4.38e-12  |g|= 1.17e-06  |ddm|= 5.93e-06
    CPU time for scf_cycle    648.84 sec, wall time      8.54 sec
    CPU time for SCF    648.84 sec, wall time      8.54 sec
converged SCF energy = -168.272851439524
