#INFO: **** input file is /home/nkousuke/lustre/toBeSync/turboRVB/05turbo-genius-development/turbogenius_paper/04data/sanity_checks/03pyscf_HF_turbo_VMC_via_trexio/00open_boundary/results/H2O/pyscf-HF-workflow/run.py ****

from pyscf_wrapper import Pyscf_wrapper

# input variables
pyscf_chkfile="pyscf.chk"
structure_file="H2O.xyz"

# input variables
omp_num_threads=128
charge=0
spin=0
basis="ccecp-ccpvqz"
ecp="ccecp"
scf_method="HF"
dft_xc="NA"
solver_newton=False
MP2_flag=False
CCSD_flag=False
pyscf_output="out.pyscf"
twist_average=False
exp_to_discard=0.0
kpt=[0.0, 0.0, 0.0]
kpt_grid=[1, 1, 1]
smearing_method="fermi"
smearing_sigma=0.0

pyscf_calc=Pyscf_wrapper(
                        structure_file=structure_file,
                        chkfile=pyscf_chkfile,
                        )

pyscf_calc.run_pyscf(
                  omp_num_threads=omp_num_threads,
                  charge=charge,
                  spin=spin,
                  basis=basis,
                  ecp=ecp,
                  scf_method=scf_method,
                  dft_xc=dft_xc,
                  solver_newton=solver_newton,
                  MP2_flag=MP2_flag,
                  CCSD_flag=CCSD_flag,
                  pyscf_output=pyscf_output,
                  twist_average=twist_average,
                  exp_to_discard=exp_to_discard,
                  kpt=kpt,
                  kpt_grid=kpt_grid,
                  smearing_method=smearing_method,
                  smearing_sigma=smearing_sigma
                  )
                #INFO: ******************** input file end ********************


System: uname_result(system='Linux', node='spcc-200', release='5.4.0-66-generic', version='#74-Ubuntu SMP Wed Jan 27 22:54:38 UTC 2021', machine='x86_64', processor='x86_64')  Threads 128
Python 3.7.3 (default, Mar 27 2019, 22:11:17) 
[GCC 7.3.0]
numpy 1.20.1  scipy 1.7.3
Date: Mon Dec 19 18:06:32 2022
PySCF version 2.0.1
PySCF path  /home/nkousuke/application/anaconda3/lib/python3.7/site-packages/pyscf

[CONFIG] conf_file /home/nkousuke/.pyscf_conf.py
[INPUT] verbose = 5
[INPUT] max_memory = 507469.421875 
[INPUT] num. atoms = 3
[INPUT] num. electrons = 8
[INPUT] charge = 0
[INPUT] spin (= nelec alpha-beta = 2S) = 0
[INPUT] symmetry False subgroup None
[INPUT] Mole.unit = A
[INPUT]  1 O      0.000000000000   0.000000000000   0.117250000000 AA    0.000000000000   0.000000000000   0.221570388105 Bohr
[INPUT]  2 H      0.000000000000   0.757160000000  -0.469010000000 AA    0.000000000000   1.430825032476  -0.886300449682 Bohr
[INPUT]  3 H      0.000000000000  -0.757160000000  -0.469010000000 AA    0.000000000000  -1.430825032476  -0.886300449682 Bohr
[INPUT] ---------------- BASIS SET ---------------- 
[INPUT] l, kappa, [nprim/nctr], expnt,             c_1 c_2 ...
[INPUT] H
[INPUT] 0    0    [8    /1   ]  23.843185         0.0041149
                                10.212443         0.0104644
                                4.374164          0.0280111
                                1.873529          0.0758862
                                0.802465          0.1821062
                                0.343709          0.3485214
                                0.147217          0.3782313
                                0.063055          0.1164241
[INPUT] 0    0    [1    /1   ]  0.081856             1
[INPUT] 0    0    [1    /1   ]  0.233254             1
[INPUT] 0    0    [1    /1   ]  0.664673             1
[INPUT] 1    0    [1    /1   ]  0.284469             1
[INPUT] 1    0    [1    /1   ]  0.847159             1
[INPUT] 1    0    [1    /1   ]  2.522868             1
[INPUT] 2    0    [1    /1   ]  0.665279             1
[INPUT] 2    0    [1    /1   ]  2.048739             1
[INPUT] 3    0    [1    /1   ]  1.42146              1
[INPUT] O
[INPUT] 0    0    [9    /1   ]  54.775216         -0.0012444
                                25.616801         0.010733
                                11.980245         0.0018889
                                6.992317          -0.1742537
                                2.620277          0.0017622
                                1.225429          0.3161846
                                0.577797          0.4512023
                                0.268022          0.3121534
                                0.125346          0.0511167
[INPUT] 0    0    [1    /1   ]  1.351771             1
[INPUT] 0    0    [1    /1   ]  0.843157             1
[INPUT] 0    0    [1    /1   ]  0.22438              1
[INPUT] 1    0    [9    /1   ]  22.217266         0.0104866
                                10.74755          0.0366435
                                5.315785          0.0803674
                                2.660761          0.162701
                                1.331816          0.2377791
                                0.678626          0.2811422
                                0.333673          0.2643189
                                0.167017          0.1466014
                                0.083598          0.0458145
[INPUT] 1    0    [1    /1   ]  1.106737             1
[INPUT] 1    0    [1    /1   ]  0.452364             1
[INPUT] 1    0    [1    /1   ]  0.148562             1
[INPUT] 2    0    [1    /1   ]  4.008867             1
[INPUT] 2    0    [1    /1   ]  1.344331             1
[INPUT] 2    0    [1    /1   ]  0.455711             1
[INPUT] 3    0    [1    /1   ]  2.763115             1
[INPUT] 3    0    [1    /1   ]  0.876289             1
[INPUT] 4    0    [1    /1   ]  1.759081             1

nuclear repulsion = 6.980762741132
number of shells = 34
number of NR pGTOs = 160
number of NR cGTOs = 114
basis = ccecp-ccpvqz
ecp = ccecp
CPU time:         4.83


******** <class 'pyscf.scf.hf.RHF'> ********
method = RHF
initial guess = minao
damping factor = 0
level_shift factor = 0
DIIS = <class 'pyscf.scf.diis.CDIIS'>
diis_start_cycle = 1
diis_space = 8
SCF conv_tol = 1e-09
SCF conv_tol_grad = None
SCF max_cycles = 200
direct_scf = True
direct_scf_tol = 1e-13
chkfile to save SCF result = pyscf.chk
max_memory 507469 MB (current use 106 MB)
Set gradient conv threshold to 3.16228e-05
E1 = -40.322362827635544  E_coul = 16.718114994392906
init E= -16.6234850921106
cond(S) = 24371.085650521523
    CPU time for initialize scf    140.73 sec, wall time      1.35 sec
  HOMO = -0.49318572805338  LUMO = 0.0586749272252987
  mo_energy =
[-1.65471917 -0.76631123 -0.60434882 -0.49318573  0.05867493  0.13794944
  0.3400913   0.36847014  0.41331405  0.42107149  0.4917471   0.57576289
  0.63733328  0.68906298  0.90745529  0.91505802  1.02830947  1.10398145
  1.19425453  1.25803182  1.4216704   1.43443712  1.48292153  1.56729015
  1.73438837  2.00337034  2.04919888  2.16538229  2.28637246  2.33803806
  2.4322685   2.47931869  2.48703491  2.55770996  2.59204948  2.63963633
  2.72820131  2.80688358  2.83324684  2.88435162  3.17598986  3.29766781
  3.38385974  3.39844655  3.91394538  3.95314025  4.077631    4.13909351
  4.15624431  4.32457775  4.3581741   4.66625078  4.67738564  4.71836429
  4.88143534  5.36054557  5.67890693  6.04949868  6.2366189   6.31988344
  6.40557623  6.64760609  6.75380832  6.76453991  6.78643835  6.99169341
  7.13436549  7.39984471  7.45053824  7.63041607  7.64431864  7.74700327
  7.78700822  7.89584211  7.94666633  8.00590416  8.04302466  8.10556835
  8.13309555  8.16909699  8.21298015  8.28799431  8.54245234  8.66199125
  8.84813861  9.18205259  9.24760386  9.39095123  9.41952667  9.55921715
  9.89148553 10.0811892  10.32898811 10.38710288 10.89109667 10.90729284
 11.05647636 11.37647533 11.69051716 11.9687053  12.04540144 12.35243015
 12.38634993 12.40208447 12.55544077 13.55583884 13.70109993 14.35028856
 14.36803397 14.83969034 14.9192257  16.31517729 17.14056174 32.92590112]
E1 = -42.08028932827006  E_coul = 18.19759523568683
cycle= 1 E= -16.9019313514512  delta_E= -0.278  |g|= 0.48  |ddm|= 2.85
    CPU time for cycle= 1     40.19 sec, wall time      0.43 sec
  HOMO = -0.422620430269516  LUMO = 0.111340847783963
  mo_energy =
[-1.29287867 -0.6604995  -0.49730217 -0.42262043  0.11134085  0.15297884
  0.39984287  0.42832887  0.47860708  0.49924439  0.57326616  0.58903945
  0.64139015  0.70688445  0.89679953  1.02981163  1.06055305  1.14092798
  1.2334319   1.29912746  1.52807015  1.54146169  1.59933112  1.66052485
  1.85828887  2.06661846  2.19177022  2.19265517  2.26987451  2.32288394
  2.43977815  2.47320943  2.50373142  2.58103057  2.65472624  2.66000822
  2.76016018  2.87760787  2.87821381  2.94599397  3.24558012  3.38086628
  3.4138597   3.4804694   4.07023196  4.10820177  4.30924252  4.33777272
  4.37358027  4.49130502  4.58829103  4.82789858  4.84315197  4.87418832
  5.03638718  5.48567098  5.74304822  6.06219617  6.2924544   6.3270057
  6.39982334  6.79206161  6.87327176  6.89950091  6.90495535  7.17034237
  7.17382701  7.43878548  7.50921049  7.59329398  7.61397388  7.77130849
  7.8410048   7.89751069  7.95385584  8.05538222  8.07924457  8.16905822
  8.19228089  8.22843177  8.23330567  8.26028147  8.61908829  8.72443633
  8.98207509  9.23517332  9.346669    9.50650014  9.51856554  9.5817255
 10.09572672 10.27715716 10.57066213 10.59925804 11.12848934 11.1461698
 11.30422988 11.65877388 11.91880198 12.27302942 12.33138089 12.67068252
 12.67733403 12.74429652 12.88927533 13.7719995  14.02687973 14.62316996
 14.69696998 15.17152834 15.22584708 16.58558573 17.42316662 33.42404603]
E1 = -41.04441295293768  E_coul = 17.13156248936655
cycle= 2 E= -16.9320877224391  delta_E= -0.0302  |g|= 0.279  |ddm|= 0.803
    CPU time for cycle= 2     67.26 sec, wall time      0.53 sec
  HOMO = -0.518269024513976  LUMO = 0.108408505668069
  mo_energy =
[-1.38097862 -0.72938322 -0.5919721  -0.51826902  0.10840851  0.15258841
  0.38050864  0.41469482  0.4668719   0.4717849   0.55100114  0.585693
  0.64042756  0.70208186  0.89989664  0.98986389  1.04778818  1.12500717
  1.21802778  1.28458928  1.49099322  1.50180188  1.55701355  1.62544338
  1.81293709  2.05833351  2.11795093  2.18504648  2.27891531  2.32921763
  2.44084576  2.47373967  2.49693023  2.58545264  2.61685105  2.64995442
  2.73250679  2.84485416  2.86151992  2.92594689  3.22115616  3.34517282
  3.40679999  3.44181827  4.00783513  4.05046018  4.21538368  4.26754538
  4.28275747  4.42536071  4.49085852  4.76148696  4.77655145  4.80673594
  4.97514617  5.43531118  5.72067116  6.06146453  6.27378048  6.32766213
  6.40647726  6.78269241  6.78613662  6.83542171  6.84908204  7.07672697
  7.16308037  7.42633218  7.48782604  7.6106572   7.62147203  7.77200676
  7.80850144  7.88875195  7.95238947  8.02010314  8.05340593  8.14844341
  8.18615884  8.19666129  8.2210518   8.2730503   8.59443618  8.69040741
  8.92439861  9.2149761   9.31054439  9.46648233  9.47107955  9.57391427
 10.01427433 10.19198156 10.46853384 10.50979358 11.02148658 11.04617055
 11.19992029 11.53675317 11.81619076 12.16630166 12.17454306 12.52368608
 12.54503589 12.58604188 12.73298425 13.66858575 13.86937093 14.4906256
 14.53804842 15.01062282 15.0703884  16.45473853 17.28253111 33.15865295]
E1 = -41.537629113743655  E_coul = 17.612148800743523
cycle= 3 E= -16.9447175718681  delta_E= -0.0126  |g|= 0.031  |ddm|= 0.325
    CPU time for cycle= 3     57.59 sec, wall time      0.45 sec
  HOMO = -0.508216294499026  LUMO = 0.11154151391612
  mo_energy =
[-1.36732498 -0.71724564 -0.58286972 -0.50821629  0.11154151  0.15485372
  0.38097131  0.41783515  0.47359141  0.47421385  0.55650198  0.59079254
  0.64491345  0.70627634  0.90306127  0.99387713  1.05245275  1.13003188
  1.22321763  1.29172359  1.49628991  1.50672859  1.56197106  1.63254509
  1.81849459  2.06487859  2.12617465  2.19174196  2.28723666  2.33562716
  2.44645003  2.480807    2.50396136  2.59145021  2.6243542   2.65809206
  2.73815042  2.85130426  2.86825187  2.93379309  3.22816842  3.35560232
  3.41448255  3.45256052  4.01727472  4.06016022  4.22387925  4.27621567
  4.29007498  4.43273919  4.50286907  4.76761984  4.78597322  4.82015817
  4.98572769  5.44807629  5.73213578  6.07176258  6.28537946  6.33752241
  6.41725156  6.79647524  6.80237844  6.84599989  6.86407716  7.08843584
  7.17641922  7.43587766  7.50129543  7.62233714  7.63331905  7.78448269
  7.82389869  7.90073295  7.96589652  8.03450865  8.06933628  8.16285222
  8.1995515   8.21383302  8.23302146  8.28574331  8.61045933  8.70318548
  8.93840123  9.22929     9.3257311   9.48007287  9.48608565  9.58840399
 10.02888369 10.20635831 10.48078298 10.5246724  11.03760278 11.06059039
 11.21346292 11.55029095 11.83434614 12.18330407 12.19285748 12.54151893
 12.55736986 12.60524907 12.75242234 13.68902432 13.88998317 14.51145624
 14.55814259 15.03008005 15.09154184 16.4742315  17.30366103 33.18699112]
E1 = -41.49641893908311  E_coul = 17.57073840662235
cycle= 4 E= -16.9449177913288  delta_E= -0.0002  |g|= 0.00573  |ddm|= 0.0398
    CPU time for cycle= 4     73.35 sec, wall time      0.59 sec
  HOMO = -0.508855191119193  LUMO = 0.11165443180008
  mo_energy =
[-1.36742087 -0.71686557 -0.58285755 -0.50885519  0.11165443  0.15510552
  0.38109349  0.41822048  0.47399431  0.47404292  0.55706266  0.59102913
  0.64522688  0.70646794  0.90338877  0.99403857  1.05257315  1.13045188
  1.22351814  1.29205568  1.49650196  1.50704154  1.56233008  1.63293183
  1.81901467  2.06531748  2.12597266  2.19201754  2.28777371  2.33611313
  2.44725265  2.48143409  2.50470754  2.59211994  2.62478332  2.65884452
  2.73881203  2.85161545  2.86866497  2.9340724   3.22853517  3.35622227
  3.41495665  3.45280148  4.01739313  4.06025264  4.22419554  4.27676135
  4.29036907  4.43306611  4.50300197  4.76851567  4.78630879  4.8203942
  4.9859563   5.44874672  5.73323387  6.07260509  6.28637232  6.33846768
  6.41807592  6.79699019  6.80244315  6.84696481  6.86492572  7.08940079
  7.1771837   7.43685371  7.50250531  7.62410632  7.63488062  7.78588422
  7.82462918  7.90220189  7.96746084  8.03580989  8.07041989  8.16404194
  8.20112289  8.21477195  8.23435127  8.28745605  8.61168353  8.7043713
  8.93927573  9.23084517  9.32688331  9.4809733   9.48721023  9.58980754
 10.02896629 10.2069269  10.48107054 10.52490611 11.03813472 11.06136274
 11.21391865 11.55072658 11.83483605 12.18332307 12.19336927 12.5415947
 12.55810925 12.60506558 12.75206172 13.68883554 13.89016262 14.51162885
 14.55813589 15.03013385 15.09119439 16.47474818 17.30386363 33.18627436]
E1 = -41.498673784446304  E_coul = 17.57297802840536
cycle= 5 E= -16.9449330149089  delta_E= -1.52e-05  |g|= 0.00102  |ddm|= 0.015
    CPU time for cycle= 5     77.64 sec, wall time      0.61 sec
  HOMO = -0.509062427472838  LUMO = 0.111619906083188
  mo_energy =
[-1.36748835 -0.71677181 -0.58296994 -0.50906243  0.11161991  0.15511697
  0.38107052  0.41817667  0.47391221  0.47395212  0.55706373  0.59098938
  0.64519729  0.70643647  0.90335585  0.99402009  1.05254377  1.13044135
  1.22346199  1.2920018   1.49648025  1.50699082  1.56230517  1.6328314
  1.81896409  2.06524789  2.12587255  2.19197745  2.28772741  2.3360697
  2.44722808  2.48141842  2.50463307  2.59208676  2.62474711  2.65882333
  2.73879843  2.85156207  2.86862738  2.9340343   3.22847755  3.3561375
  3.41491182  3.45272805  4.01728961  4.06017647  4.22407542  4.2766619
  4.29031418  4.43295238  4.50293462  4.76840628  4.78624173  4.82028754
  4.98587659  5.44867188  5.7331641   6.07254628  6.28631864  6.33838056
  6.41800381  6.79690708  6.80234009  6.8468855   6.86481331  7.08931277
  7.17713278  7.43681607  7.50241198  7.62412689  7.63487562  7.78586152
  7.8245595   7.9022293   7.96738663  8.03576698  8.07036511  8.16398856
  8.20102414  8.21470051  8.23432621  8.28741769  8.61158065  8.70427998
  8.93918124  9.23080131  9.32680074  9.48092277  9.48718342  9.58976713
 10.02894895 10.20676179 10.48088001 10.52482104 11.03801951 11.06123193
 11.21381073 11.55058838 11.83473577 12.18321724 12.19323558 12.54153662
 12.55785392 12.60493133 12.75191904 13.6886322  13.89002989 14.51146244
 14.55804514 15.0299491  15.09098433 16.47450193 17.30366639 33.18606582]
E1 = -41.49891395616786  E_coul = 17.573217566254726
cycle= 6 E= -16.9449336487811  delta_E= -6.34e-07  |g|= 0.000198  |ddm|= 0.00305
    CPU time for cycle= 6     69.03 sec, wall time      0.54 sec
  HOMO = -0.509111284559807  LUMO = 0.111618902829082
  mo_energy =
[-1.36748486 -0.71672843 -0.58298837 -0.50911128  0.1116189   0.15512865
  0.38106745  0.41817909  0.47390891  0.47393564  0.55708924  0.59099408
  0.6452002   0.7064397   0.90336031  0.99402485  1.05254608  1.13045682
  1.22346975  1.29201108  1.49647884  1.50698954  1.56230459  1.63283542
  1.81897408  2.06525226  2.1258641   2.19198205  2.28773526  2.33607853
  2.44723898  2.48142735  2.50464226  2.59209697  2.6247527   2.65884116
  2.73880999  2.85156866  2.86863217  2.93403886  3.22848068  3.35614944
  3.41492168  3.45273707  4.01729172  4.06017786  4.22407394  4.27666542
  4.29031355  4.43295217  4.50293992  4.76840954  4.78624744  4.82029812
  4.98588229  5.44868426  5.73317652  6.072558    6.28633224  6.33838864
  6.4180143   6.79691864  6.80235078  6.84689673  6.86482657  7.08932642
  7.17714597  7.4368285   7.50242637  7.62415058  7.63489519  7.7858824
  7.82457335  7.90225338  7.96740065  8.03578885  8.07038296  8.16400304
  8.20103748  8.21471347  8.23434555  8.28743554  8.61159353  8.7042951
  8.93919356  9.23081939  9.32681281  9.48093934  9.48720239  9.58978681
 10.02896587 10.206767   10.48087693 10.52483165 11.03803299 11.06124023
 11.21381977 11.55059457 11.83475085 12.1832333  12.19324755 12.54155764
 12.5578519  12.60494426 12.75193007 13.68863577 13.89004746 14.51147313
 14.55806864 15.02996185 15.09099388 16.47450629 17.30367691 33.18609304]
E1 = -41.498849266794295  E_coul = 17.573152851967627
cycle= 7 E= -16.9449336736947  delta_E= -2.49e-08  |g|= 3.18e-05  |ddm|= 0.0006
    CPU time for cycle= 7     59.89 sec, wall time      0.47 sec
  HOMO = -0.50910970830509  LUMO = 0.111620018610619
  mo_energy =
[-1.36747671 -0.71671289 -0.582982   -0.50910971  0.11162002  0.15513101
  0.38106694  0.41817971  0.4739106   0.47393301  0.55709417  0.59099638
  0.64520242  0.70644162  0.90336277  0.99402696  1.052548    1.13046029
  1.22347192  1.29201428  1.49648092  1.50699183  1.56230686  1.63283889
  1.81897793  2.06525565  2.12586616  2.19198523  2.28773917  2.33608262
  2.44724317  2.48143095  2.50464627  2.59210085  2.62475657  2.65884637
  2.73881379  2.85157241  2.86863509  2.93404199  3.22848388  3.35615474
  3.41492575  3.452742    4.01729625  4.06018197  4.22407859  4.27667027
  4.29031785  4.43295602  4.50294589  4.76841409  4.78625248  4.82030457
  4.98588731  5.44869002  5.73318204  6.07256312  6.28633794  6.33839348
  6.41801944  6.79692387  6.8023595   6.84690259  6.86483335  7.08933423
  7.17715121  7.4368336   7.50243238  7.62415669  7.6349009   7.78588864
  7.82457975  7.90226023  7.96740618  8.03579654  8.07038999  8.16400852
  8.2010431   8.21471942  8.23435193  8.28744134  8.61159953  8.70430132
  8.93919994  9.23082565  9.32681884  9.48094636  9.48720928  9.58979321
 10.02897349 10.20677356 10.4808824  10.52483871 11.03804162 11.06124762
 11.2138273  11.55060243 11.83475962 12.18324441 12.19325558 12.54156885
 12.55785905 12.60495487 12.75194007 13.68864236 13.89005907 14.51148236
 14.55808125 15.02997299 15.09100403 16.47451464 17.30368663 33.18611153]
E1 = -41.498833300785805  E_coul = 17.573136885506784
cycle= 8 E= -16.944933674147  delta_E= -4.52e-10  |g|= 2.5e-06  |ddm|= 9.62e-05
    CPU time for cycle= 8     22.99 sec, wall time      0.18 sec
  HOMO = -0.509109432363525  LUMO = 0.111620218121839
  mo_energy =
[-1.36747607 -0.71671264 -0.58298162 -0.50910943  0.11162022  0.15513113
  0.38106722  0.41818011  0.47391095  0.4739333   0.55709466  0.59099666
  0.64520262  0.70644191  0.90336295  0.9940275   1.05254828  1.13046062
  1.22347231  1.29201465  1.49648143  1.50699234  1.56230738  1.63283948
  1.81897852  2.06525605  2.12586679  2.19198563  2.28773947  2.33608291
  2.44724345  2.48143121  2.50464667  2.59210114  2.62475707  2.65884669
  2.73881412  2.85157291  2.8686355   2.93404249  3.22848442  3.35615531
  3.41492614  3.45274258  4.01729703  4.06018278  4.22407946  4.27667107
  4.29031868  4.43295678  4.50294675  4.76841482  4.78625324  4.82030538
  4.98588808  5.44869072  5.7331826   6.07256363  6.28633848  6.33839396
  6.4180199   6.79692449  6.80236027  6.8469032   6.86483398  7.08933488
  7.17715175  7.43683409  7.50243293  7.62415689  7.63490121  7.78588896
  7.82458038  7.9022605   7.9674067   8.03579695  8.07039049  8.16400914
  8.20104364  8.21472014  8.23435236  8.28744173  8.61160021  8.70430189
  8.93920069  9.2308262   9.32681953  9.48094713  9.48720991  9.58979369
 10.02897445 10.20677442 10.4808834  10.52483964 11.03804252 11.06124852
 11.21382826 11.55060342 11.83476055 12.18324555 12.19325651 12.54156992
 12.55786002 12.60495599 12.75194118 13.6886433  13.89006006 14.51148326
 14.55808226 15.02997399 15.09100497 16.47451552 17.30368749 33.18611243]
E1 = -41.498831872002185  E_coul = 17.573135456720895
Extra cycle  E= -16.9449336741493  delta_E= -2.27e-12  |g|= 8.03e-07  |ddm|= 7.27e-06
    CPU time for scf_cycle    684.98 sec, wall time      5.74 sec
    CPU time for SCF    684.98 sec, wall time      5.74 sec
converged SCF energy = -16.9449336741493
