#INFO: **** input file is /home/nkousuke/lustre/toBeSync/turboRVB/05turbo-genius-development/turbogenius_paper/04data/sanity_checks/03pyscf_HF_turbo_VMC_via_trexio/00open_boundary/results/Cl2/pyscf-HF-workflow/run.py ****

from pyscf_wrapper import Pyscf_wrapper

# input variables
pyscf_chkfile="pyscf.chk"
structure_file="Cl2.xyz"

# input variables
omp_num_threads=128
charge=0
spin=0
basis="ccecp-ccpvqz"
ecp="ccecp"
scf_method="HF"
dft_xc="NA"
solver_newton=False
MP2_flag=False
CCSD_flag=False
pyscf_output="out.pyscf"
twist_average=False
exp_to_discard=0.0
kpt=[0.0, 0.0, 0.0]
kpt_grid=[1, 1, 1]
smearing_method="fermi"
smearing_sigma=0.0

pyscf_calc=Pyscf_wrapper(
                        structure_file=structure_file,
                        chkfile=pyscf_chkfile,
                        )

pyscf_calc.run_pyscf(
                  omp_num_threads=omp_num_threads,
                  charge=charge,
                  spin=spin,
                  basis=basis,
                  ecp=ecp,
                  scf_method=scf_method,
                  dft_xc=dft_xc,
                  solver_newton=solver_newton,
                  MP2_flag=MP2_flag,
                  CCSD_flag=CCSD_flag,
                  pyscf_output=pyscf_output,
                  twist_average=twist_average,
                  exp_to_discard=exp_to_discard,
                  kpt=kpt,
                  kpt_grid=kpt_grid,
                  smearing_method=smearing_method,
                  smearing_sigma=smearing_sigma
                  )
                #INFO: ******************** input file end ********************


System: uname_result(system='Linux', node='spcc-200', release='5.4.0-66-generic', version='#74-Ubuntu SMP Wed Jan 27 22:54:38 UTC 2021', machine='x86_64', processor='x86_64')  Threads 128
Python 3.7.3 (default, Mar 27 2019, 22:11:17) 
[GCC 7.3.0]
numpy 1.20.1  scipy 1.7.3
Date: Mon Dec 19 18:08:45 2022
PySCF version 2.0.1
PySCF path  /home/nkousuke/application/anaconda3/lib/python3.7/site-packages/pyscf

[CONFIG] conf_file /home/nkousuke/.pyscf_conf.py
[INPUT] verbose = 5
[INPUT] max_memory = 507491.84375 
[INPUT] num. atoms = 2
[INPUT] num. electrons = 14
[INPUT] charge = 0
[INPUT] spin (= nelec alpha-beta = 2S) = 0
[INPUT] symmetry False subgroup None
[INPUT] Mole.unit = A
[INPUT]  1 Cl     0.000000000000   0.000000000000   0.993950000000 AA    0.000000000000   0.000000000000   1.878293281511 Bohr
[INPUT]  2 Cl     0.000000000000   0.000000000000  -0.993950000000 AA    0.000000000000   0.000000000000  -1.878293281511 Bohr
[INPUT] ---------------- BASIS SET ---------------- 
[INPUT] l, kappa, [nprim/nctr], expnt,             c_1 c_2 ...
[INPUT] Cl
[INPUT] 0    0    [10   /1   ]  15.583847         0.002501
                                8.858485          -0.010046
                                5.035519          0.08581
                                2.862391          -0.290136
                                1.627098          -0.140314
                                0.924908          0.146839
                                0.525755          0.392484
                                0.29886           0.425061
                                0.169884          0.227195
                                0.096569          0.059828
[INPUT] 0    0    [1    /1   ]  1.038268             1
[INPUT] 0    0    [1    /1   ]  0.418863             1
[INPUT] 0    0    [1    /1   ]  0.16898              1
[INPUT] 1    0    [10   /1   ]  7.682894          -0.004609
                                4.507558          -0.001798
                                2.644587          -0.068614
                                1.551581          0.062352
                                0.910313          0.166337
                                0.534081          0.282292
                                0.313346          0.275967
                                0.18384           0.241328
                                0.107859          0.110223
                                0.063281          0.040289
[INPUT] 1    0    [1    /1   ]  2.626653             1
[INPUT] 1    0    [1    /1   ]  1.069041             1
[INPUT] 1    0    [1    /1   ]  0.435097             1
[INPUT] 2    0    [1    /1   ]  2.102692             1
[INPUT] 2    0    [1    /1   ]  0.763188             1
[INPUT] 2    0    [1    /1   ]  0.277005             1
[INPUT] 3    0    [1    /1   ]  1.139446             1
[INPUT] 3    0    [1    /1   ]  0.434852             1
[INPUT] 4    0    [1    /1   ]  0.844301             1

nuclear repulsion = 13.043756393722
number of shells = 28
number of NR pGTOs = 180
number of NR cGTOs = 108
basis = ccecp-ccpvqz
ecp = ccecp
CPU time:         5.59


******** <class 'pyscf.scf.hf.RHF'> ********
method = RHF
initial guess = minao
damping factor = 0
level_shift factor = 0
DIIS = <class 'pyscf.scf.diis.CDIIS'>
diis_start_cycle = 1
diis_space = 8
SCF conv_tol = 1e-09
SCF conv_tol_grad = None
SCF max_cycles = 200
direct_scf = True
direct_scf_tol = 1e-13
chkfile to save SCF result = pyscf.chk
max_memory 507491 MB (current use 106 MB)
Set gradient conv threshold to 3.16228e-05
E1 = -75.30587876585665  E_coul = 32.832350609416615
init E= -29.429771762718
cond(S) = 3555.7758599981353
    CPU time for initialize scf    136.32 sec, wall time      1.19 sec
  HOMO = -0.350190654054192  LUMO = -0.110214401612079
  mo_energy =
[-1.33373012 -0.99751443 -0.61013513 -0.53466744 -0.53466744 -0.35019065
 -0.35019065 -0.1102144   0.37343658  0.39132046  0.4265211   0.4265211
  0.46188746  0.46188746  0.51619722  0.54000282  0.54000282  0.58956529
  0.58956529  0.59789373  0.59789373  0.69200883  0.83061301  0.83061301
  0.84170187  1.08020841  1.41754345  1.41754345  1.48687759  1.48687759
  1.49609755  1.50328336  1.50328336  1.62262543  1.62262543  1.66023145
  1.66023145  1.67978196  1.67978196  1.69494899  1.75091069  1.75091069
  1.82455513  1.82455513  1.86736779  1.91310453  1.91310453  2.3008347
  2.3008347   2.39117589  2.67616869  2.67616869  2.69137832  2.87648248
  2.87648248  2.97538805  3.22210551  3.69689209  3.69689209  3.71642815
  3.71642815  3.75127401  3.78063209  3.85417534  3.85417534  3.95227531
  3.95227531  3.97671128  3.97671128  4.06553594  4.06553594  4.26223262
  4.26223262  4.35645317  4.35645317  4.37019569  4.37019569  4.42124156
  4.42124156  4.42291169  4.42291169  4.48334901  4.54387306  4.5912471
  4.5912471   4.69104112  4.69104112  4.77027583  5.04192186  5.04192186
  5.10824671  5.10824671  5.18608492  5.18608492  5.18865747  5.18865747
  5.36985393  5.36985393  5.76349447  6.16890509 11.2687264  11.2687264
 11.43884757 11.43884757 11.4717296  12.17968165 17.2937008  17.82932693]
E1 = -74.81154740293657  E_coul = 32.362128691562475
cycle= 1 E= -29.4056623176521  delta_E= 0.0241  |g|= 0.242  |ddm|= 2.62
    CPU time for cycle= 1     36.65 sec, wall time      0.33 sec
  HOMO = -0.463154769620777  LUMO = 0.00840626824237
  mo_energy =
[-1.26638031e+00 -1.04256721e+00 -6.24953281e-01 -5.97019207e-01
 -5.97019207e-01 -4.63154770e-01 -4.63154770e-01  8.40626824e-03
  3.60985619e-01  3.76507341e-01  3.94186383e-01  3.94186383e-01
  4.40608029e-01  4.40608029e-01  5.07802719e-01  5.27191295e-01
  5.27191295e-01  5.70925230e-01  5.70925230e-01  5.84769665e-01
  5.84769665e-01  6.77666093e-01  8.19708152e-01  8.19708152e-01
  8.29199186e-01  1.06412385e+00  1.39187850e+00  1.39187850e+00
  1.44651454e+00  1.44651454e+00  1.45211577e+00  1.49598159e+00
  1.49598159e+00  1.61939236e+00  1.61939236e+00  1.63985379e+00
  1.63985379e+00  1.65980518e+00  1.65980518e+00  1.67601849e+00
  1.71387310e+00  1.71387310e+00  1.78873660e+00  1.78873660e+00
  1.82839256e+00  1.90096908e+00  1.90096908e+00  2.29451307e+00
  2.29451307e+00  2.35328487e+00  2.63961707e+00  2.65547756e+00
  2.65547756e+00  2.84752629e+00  2.84752629e+00  2.95579008e+00
  3.20872196e+00  3.63445442e+00  3.63445442e+00  3.67723744e+00
  3.67723744e+00  3.69432022e+00  3.70667509e+00  3.83266651e+00
  3.83266651e+00  3.95023409e+00  3.95023409e+00  3.97493788e+00
  3.97493788e+00  4.03748747e+00  4.03748747e+00  4.20656333e+00
  4.20656333e+00  4.33321778e+00  4.33321778e+00  4.34162941e+00
  4.34162941e+00  4.35653739e+00  4.35653739e+00  4.41623789e+00
  4.41623789e+00  4.43122435e+00  4.51765228e+00  4.54342234e+00
  4.54342234e+00  4.67129436e+00  4.67129436e+00  4.70570238e+00
  5.01917466e+00  5.01917466e+00  5.08823960e+00  5.08823960e+00
  5.14919161e+00  5.14919161e+00  5.16270766e+00  5.16270766e+00
  5.31366547e+00  5.31366547e+00  5.73269760e+00  6.06483709e+00
  1.12301048e+01  1.12301048e+01  1.14000915e+01  1.14000915e+01
  1.14035971e+01  1.21229344e+01  1.72443953e+01  1.77773703e+01]
E1 = -75.34046268618611  E_coul = 32.87584124339171
cycle= 2 E= -29.4208650490724  delta_E= -0.0152  |g|= 0.0974  |ddm|= 0.589
    CPU time for cycle= 2     67.21 sec, wall time      0.56 sec
  HOMO = -0.440554654483338  LUMO = 0.0373168464318064
  mo_energy =
[-1.22223607 -1.0211046  -0.59668292 -0.56703733 -0.56703733 -0.44055465
 -0.44055465  0.03731685  0.37890218  0.38688692  0.41973459  0.41973459
  0.46551545  0.46551545  0.5107094   0.54212114  0.54212114  0.59009056
  0.59009056  0.59913789  0.59913789  0.70376825  0.83462447  0.83462447
  0.84955065  1.07548933  1.41620578  1.41620578  1.47306635  1.47306635
  1.48035937  1.51694236  1.51694236  1.63746172  1.63746172  1.66946019
  1.66946019  1.68685925  1.68685925  1.69070232  1.74498732  1.74498732
  1.81994493  1.81994493  1.85884493  1.91928927  1.91928927  2.30615614
  2.30615614  2.38087537  2.68095367  2.68458789  2.68458789  2.8774824
  2.8774824   2.97880288  3.22369416  3.67710097  3.67710097  3.7081726
  3.7081726   3.73325292  3.75828077  3.86054823  3.86054823  3.9770734
  3.9770734   4.00161867  4.00161867  4.07067653  4.07067653  4.25483637
  4.25483637  4.36969797  4.36969797  4.37671581  4.37671581  4.40736017
  4.40736017  4.4455133   4.4455133   4.46767858  4.54043138  4.57747768
  4.57747768  4.69169938  4.69169938  4.747695    5.05750141  5.05750141
  5.12502352  5.12502352  5.18553113  5.18553113  5.18797262  5.18797262
  5.34912557  5.34912557  5.75741485  6.13279232 11.274746   11.274746
 11.44423641 11.44423641 11.45162501 12.16134615 17.29162307 17.82710749]
E1 = -75.18025885394817  E_coul = 32.71289743976212
cycle= 3 E= -29.423605020464  delta_E= -0.00274  |g|= 0.0202  |ddm|= 0.153
    CPU time for cycle= 3     73.62 sec, wall time      0.57 sec
  HOMO = -0.442242563072604  LUMO = 0.0396006771339925
  mo_energy =
[-1.22528954 -1.02108595 -0.59887328 -0.56876292 -0.56876292 -0.44224256
 -0.44224256  0.03960068  0.38071461  0.3847009   0.41874053  0.41874053
  0.46374417  0.46374417  0.51194781  0.54048767  0.54048767  0.58914748
  0.58914748  0.59927398  0.59927398  0.70231857  0.83432138  0.83432138
  0.84930114  1.07590834  1.41479513  1.41479513  1.47205191  1.47205191
  1.47904938  1.51528207  1.51528207  1.63632694  1.63632694  1.66800578
  1.66800578  1.6859354   1.6859354   1.69188443  1.74404972  1.74404972
  1.81871237  1.81871237  1.85728616  1.91834939  1.91834939  2.30650096
  2.30650096  2.38100338  2.67938441  2.68342043  2.68342043  2.87602192
  2.87602192  2.97822174  3.22506284  3.67547652  3.67547652  3.70748414
  3.70748414  3.73108053  3.75614555  3.85975074  3.85975074  3.97571928
  3.97571928  4.00028665  4.00028665  4.06875267  4.06875267  4.25176582
  4.25176582  4.36839874  4.36839874  4.37501719  4.37501719  4.40500934
  4.40500934  4.44487215  4.44487215  4.4673963   4.54046658  4.57688036
  4.57688036  4.69235362  4.69235362  4.74658692  5.05598986  5.05598986
  5.12369488  5.12369488  5.18432905  5.18432905  5.18837344  5.18837344
  5.34816816  5.34816816  5.7577196   6.13021978 11.27314605 11.27314605
 11.44265869 11.44265869 11.4500647  12.160748   17.28993297 17.82504945]
E1 = -75.19354304457626  E_coul = 32.72596186929058
cycle= 4 E= -29.4238247815637  delta_E= -0.00022  |g|= 0.00287  |ddm|= 0.03
    CPU time for cycle= 4    104.24 sec, wall time      0.85 sec
  HOMO = -0.442967067854823  LUMO = 0.0390501076442166
  mo_energy =
[-1.22598629 -1.0218682  -0.59981454 -0.56918791 -0.56918791 -0.44296707
 -0.44296707  0.03905011  0.38032452  0.38384158  0.41816705  0.41816705
  0.46335826  0.46335826  0.51140498  0.54024527  0.54024527  0.58869804
  0.58869804  0.59902909  0.59902909  0.70177876  0.8336934   0.8336934
  0.84856939  1.07505233  1.41428469  1.41428469  1.47130627  1.47130627
  1.47814393  1.5150518   1.5150518   1.63609935  1.63609935  1.66737796
  1.66737796  1.68537789  1.68537789  1.69081678  1.74319788  1.74319788
  1.81774614  1.81774614  1.85648572  1.91778113  1.91778113  2.30587575
  2.30587575  2.37996668  2.67822058  2.68271309  2.68271309  2.87515995
  2.87515995  2.97727674  3.22398273  3.6745077   3.6745077   3.7065793
  3.7065793   3.72985496  3.75516515  3.85904407  3.85904407  3.97532241
  3.97532241  3.99988993  3.99988993  4.06806394  4.06806394  4.25094054
  4.25094054  4.3673589   4.3673589   4.37429993  4.37429993  4.40402415
  4.40402415  4.44413944  4.44413944  4.46606304  4.5393846   4.57558705
  4.57558705  4.69122947  4.69122947  4.74522051  5.05499263  5.05499263
  5.12271088  5.12271088  5.18306853  5.18306853  5.18715267  5.18715267
  5.34685158  5.34685158  5.75641006  6.12893092 11.27178386 11.27178386
 11.4412783  11.4412783  11.44837822 12.15895459 17.28837615 17.82352412]
E1 = -75.1936161309188  E_coul = 32.72602978643855
cycle= 5 E= -29.4238299507582  delta_E= -5.17e-06  |g|= 0.000351  |ddm|= 0.00636
    CPU time for cycle= 5     48.67 sec, wall time      0.39 sec
  HOMO = -0.44281942140566  LUMO = 0.0392053393947035
  mo_energy =
[-1.22581346 -1.0216955  -0.59965061 -0.56901867 -0.56901867 -0.44281942
 -0.44281942  0.03920534  0.38038628  0.38392376  0.41831049  0.41831049
  0.46346305  0.46346305  0.51147788  0.54031235  0.54031235  0.58881629
  0.58881629  0.59911058  0.59911058  0.70187123  0.83381137  0.83381137
  0.84869968  1.07515751  1.4143797   1.4143797   1.47142938  1.47142938
  1.47828394  1.51513323  1.51513323  1.63618638  1.63618638  1.66758197
  1.66758197  1.68555447  1.68555447  1.69100486  1.74338416  1.74338416
  1.81793989  1.81793989  1.85662186  1.91789815  1.91789815  2.30599616
  2.30599616  2.38015342  2.67845207  2.68292895  2.68292895  2.875363
  2.875363    2.9774831   3.2242064   3.67468964  3.67468964  3.70674384
  3.70674384  3.730059    3.75537688  3.85920474  3.85920474  3.97548006
  3.97548006  4.00004794  4.00004794  4.06822337  4.06822337  4.25113977
  4.25113977  4.3676097   4.3676097   4.3745453   4.3745453   4.40426999
  4.40426999  4.44438598  4.44438598  4.46632438  4.53961924  4.57585097
  4.57585097  4.69144994  4.69144994  4.74552153  5.05531197  5.05531197
  5.12302632  5.12302632  5.18337294  5.18337294  5.18743417  5.18743417
  5.34709152  5.34709152  5.75667592  6.12925424 11.2721955  11.2721955
 11.44168793 11.44168793 11.44879968 12.15936994 17.28882527 17.82397348]
E1 = -75.19303520495156  E_coul = 32.725448805681005
cycle= 6 E= -29.4238300055485  delta_E= -5.48e-08  |g|= 6.91e-05  |ddm|= 0.00142
    CPU time for cycle= 6     61.93 sec, wall time      0.48 sec
  HOMO = -0.442849514112267  LUMO = 0.0391700035989151
  mo_energy =
[-1.22585136 -1.02173305 -0.5996822  -0.56904256 -0.56904256 -0.44284951
 -0.44284951  0.03917     0.38037278  0.38390063  0.4182901   0.4182901
  0.46343879  0.46343879  0.51146314  0.54029937  0.54029937  0.58879086
  0.58879086  0.59909573  0.59909573  0.70184661  0.83378792  0.83378792
  0.8486738   1.07513754  1.41435816  1.41435816  1.47140648  1.47140648
  1.47825838  1.51511256  1.51511256  1.63616549  1.63616549  1.66754591
  1.66754591  1.68552249  1.68552249  1.69097263  1.74335147  1.74335147
  1.81790426  1.81790426  1.85659526  1.91787251  1.91787251  2.30597197
  2.30597197  2.38012094  2.67841295  2.68289135  2.68289135  2.87532535
  2.87532535  2.9774447   3.2241672   3.67465734  3.67465734  3.70671176
  3.70671176  3.7300206   3.75534216  3.85917133  3.85917133  3.97544619
  3.97544619  4.000014    4.000014    4.06818946  4.06818946  4.25110282
  4.25110282  4.36756568  4.36756568  4.37449948  4.37449948  4.40423089
  4.40423089  4.4443403   4.4443403   4.46628321  4.53958007  4.57580828
  4.57580828  4.69140929  4.69140929  4.74547787  5.0552577   5.0552577
  5.12297242  5.12297242  5.18332309  5.18332309  5.18738775  5.18738775
  5.34705103  5.34705103  5.75663204  6.12921096 11.27213107 11.27213107
 11.44162356 11.44162356 11.44873986 12.15930951 17.28875796 17.82390629]
E1 = -75.19308966431187  E_coul = 32.725503262999815
cycle= 7 E= -29.42383000759  delta_E= -2.04e-09  |g|= 5.81e-06  |ddm|= 0.000235
    CPU time for cycle= 7     76.25 sec, wall time      0.60 sec
  HOMO = -0.442848599376627  LUMO = 0.0391704866672441
  mo_energy =
[-1.22585028 -1.02173194 -0.59967925 -0.56904151 -0.56904151 -0.4428486
 -0.4428486   0.03917049  0.38037342  0.38390094  0.41829118  0.41829118
  0.46343975  0.46343975  0.51146385  0.54029975  0.54029975  0.58879184
  0.58879184  0.59909632  0.59909632  0.70184728  0.83378879  0.83378879
  0.84867446  1.07513845  1.41435891  1.41435891  1.47140728  1.47140728
  1.47825912  1.51511341  1.51511341  1.63616638  1.63616638  1.66754742
  1.66754742  1.68552386  1.68552386  1.69097377  1.74335276  1.74335276
  1.81790544  1.81790544  1.8565962   1.91787344  1.91787344  2.30597289
  2.30597289  2.38012185  2.67841424  2.68289293  2.68289293  2.87532683
  2.87532683  2.97744623  3.22416878  3.67465832  3.67465832  3.70671285
  3.70671285  3.73002183  3.75534316  3.85917261  3.85917261  3.97544779
  3.97544779  4.00001562  4.00001562  4.06819081  4.06819081  4.25110421
  4.25110421  4.36756736  4.36756736  4.37450156  4.37450156  4.40423232
  4.40423232  4.44434234  4.44434234  4.46628467  4.53958157  4.57580986
  4.57580986  4.69141078  4.69141078  4.74547948  5.05526002  5.05526002
  5.12297471  5.12297471  5.18332488  5.18332488  5.18738944  5.18738944
  5.34705236  5.34705236  5.75663353  6.12921218 11.2721337  11.2721337
 11.44162618 11.44162618 11.44874201 12.15931167 17.28876059 17.82390896]
E1 = -75.193090947307  E_coul = 32.72550454597886
cycle= 8 E= -29.4238300076061  delta_E= -1.61e-11  |g|= 8.37e-07  |ddm|= 2.67e-05
    CPU time for cycle= 8     73.47 sec, wall time      0.58 sec
  HOMO = -0.442848503541235  LUMO = 0.0391705778820567
  mo_energy =
[-1.22585014 -1.02173185 -0.59967909 -0.56904142 -0.56904142 -0.4428485
 -0.4428485   0.03917058  0.38037349  0.38390118  0.41829125  0.41829125
  0.46343988  0.46343988  0.51146391  0.5402998   0.5402998   0.58879195
  0.58879195  0.59909639  0.59909639  0.7018474   0.83378886  0.83378886
  0.84867457  1.07513853  1.41435901  1.41435901  1.4714074   1.4714074
  1.47825929  1.51511352  1.51511352  1.63616649  1.63616649  1.66754759
  1.66754759  1.68552402  1.68552402  1.69097388  1.74335291  1.74335291
  1.81790559  1.81790559  1.85659633  1.91787355  1.91787355  2.30597297
  2.30597297  2.38012196  2.67841441  2.68289309  2.68289309  2.875327
  2.875327    2.97744638  3.22416891  3.67465848  3.67465848  3.70671299
  3.70671299  3.73002199  3.75534335  3.85917277  3.85917277  3.97544797
  3.97544797  4.00001579  4.00001579  4.06819099  4.06819099  4.25110441
  4.25110441  4.36756756  4.36756756  4.37450179  4.37450179  4.40423253
  4.40423253  4.44434255  4.44434255  4.46628482  4.53958172  4.57581003
  4.57581003  4.69141092  4.69141092  4.74547966  5.05526027  5.05526027
  5.12297495  5.12297495  5.18332508  5.18332508  5.1873896   5.1873896
  5.34705252  5.34705252  5.75663366  6.12921238 11.27213397 11.27213397
 11.44162645 11.44162645 11.44874224 12.15931187 17.28876087 17.82390924]
E1 = -75.1930905483264  E_coul = 32.72550414699783
Extra cycle  E= -29.4238300076065  delta_E= -4.26e-13  |g|= 2.53e-07  |ddm|= 2.75e-06
    CPU time for scf_cycle    699.59 sec, wall time      5.71 sec
    CPU time for SCF    699.62 sec, wall time      5.71 sec
converged SCF energy = -29.4238300076065
