#INFO: **** input file is /home/nkousuke/lustre/toBeSync/turboRVB/05turbo-genius-development/turbogenius_paper/04data/sanity_checks/02pyscf_prep_LDA_via_trexio/00open_boundary/results/H3CSH/pyscf-LDA-workflow/run.py ****

from pyscf_wrapper import Pyscf_wrapper

# input variables
pyscf_chkfile="pyscf.chk"
structure_file="H3CSH.xyz"

# input variables
omp_num_threads=128
charge=0
spin=0
basis="ccecp-ccpvqz"
ecp="ccecp"
scf_method="DFT"
dft_xc="LDA_X,LDA_C_PZ"
solver_newton=False
MP2_flag=False
CCSD_flag=False
pyscf_output="out.pyscf"
twist_average=False
exp_to_discard=0.1
kpt=[0.0, 0.0, 0.0]
kpt_grid=[1, 1, 1]
smearing_method="fermi"
smearing_sigma=0.0

pyscf_calc=Pyscf_wrapper(
                        structure_file=structure_file,
                        chkfile=pyscf_chkfile,
                        )

pyscf_calc.run_pyscf(
                  omp_num_threads=omp_num_threads,
                  charge=charge,
                  spin=spin,
                  basis=basis,
                  ecp=ecp,
                  scf_method=scf_method,
                  dft_xc=dft_xc,
                  solver_newton=solver_newton,
                  MP2_flag=MP2_flag,
                  CCSD_flag=CCSD_flag,
                  pyscf_output=pyscf_output,
                  twist_average=twist_average,
                  exp_to_discard=exp_to_discard,
                  kpt=kpt,
                  kpt_grid=kpt_grid,
                  smearing_method=smearing_method,
                  smearing_sigma=smearing_sigma
                  )
                #INFO: ******************** input file end ********************


System: uname_result(system='Linux', node='spcc-144', release='5.4.0-66-generic', version='#74-Ubuntu SMP Wed Jan 27 22:54:38 UTC 2021', machine='x86_64', processor='x86_64')  Threads 128
Python 3.7.3 (default, Mar 27 2019, 22:11:17) 
[GCC 7.3.0]
numpy 1.20.1  scipy 1.7.3
Date: Thu Dec 22 05:32:27 2022
PySCF version 2.0.1
PySCF path  /home/nkousuke/application/anaconda3/lib/python3.7/site-packages/pyscf

[CONFIG] conf_file /home/nkousuke/.pyscf_conf.py
[INPUT] verbose = 5
[INPUT] max_memory = 506626.19921875 
[INPUT] num. atoms = 6
[INPUT] num. electrons = 14
[INPUT] charge = 0
[INPUT] spin (= nelec alpha-beta = 2S) = 0
[INPUT] symmetry False subgroup None
[INPUT] Mole.unit = A
[INPUT]  1 C     -0.047746000000   1.150109000000   0.000000000000 AA   -0.090226863543   2.173391023397   0.000000000000 Bohr
[INPUT]  2 S     -0.047746000000  -0.663637000000   0.000000000000 AA   -0.090226863543  -1.254092176128   0.000000000000 Bohr
[INPUT]  3 H      1.278061000000  -0.829659000000   0.000000000000 AA    2.415185260488  -1.567828286781   0.000000000000 Bohr
[INPUT]  4 H     -1.091202000000   1.456430000000   0.000000000000 AA   -2.062072926578   2.752253819600   0.000000000000 Bohr
[INPUT]  5 H      0.431778000000   1.545383000000   0.891004000000 AA    0.815942166612   2.920350627559   1.683753535892 Bohr
[INPUT]  6 H      0.431778000000   1.545383000000  -0.891004000000 AA    0.815942166612   2.920350627559  -1.683753535892 Bohr
[INPUT] ---------------- BASIS SET ---------------- 
[INPUT] l, kappa, [nprim/nctr], expnt,             c_1 c_2 ...
[INPUT] S
[INPUT] 0    0    [10   /1   ]  14.05257          0.002102
                                7.864913          -0.011042
                                4.401818          0.086618
                                2.4636            -0.271004
                                1.378823          -0.151274
                                0.771696          0.136044
                                0.431901          0.39436
                                0.241726          0.432098
                                0.135289          0.230974
                                0.075718          0.051205
[INPUT] 0    0    [1    /1   ]  0.818729             1
[INPUT] 0    0    [1    /1   ]  0.332501             1
[INPUT] 0    0    [1    /1   ]  0.135035             1
[INPUT] 1    0    [10   /1   ]  6.808844          -0.003573
                                3.94156           0.001903
                                2.281723          -0.065016
                                1.320863          0.042305
                                0.764632          0.158772
                                0.442637          0.278172
                                0.256237          0.293821
                                0.148333          0.248015
                                0.085868          0.114905
                                0.049708          0.032934
[INPUT] 1    0    [1    /1   ]  2.088209             1
[INPUT] 1    0    [1    /1   ]  0.838124             1
[INPUT] 1    0    [1    /1   ]  0.33639              1
[INPUT] 2    0    [1    /1   ]  1.68189              1
[INPUT] 2    0    [1    /1   ]  0.613672             1
[INPUT] 2    0    [1    /1   ]  0.223911             1
[INPUT] 3    0    [1    /1   ]  0.898397             1
[INPUT] 3    0    [1    /1   ]  0.339271             1
[INPUT] 4    0    [1    /1   ]  0.691446             1
[INPUT] C
[INPUT] 0    0    [9    /1   ]  13.073594         0.0051583
                                6.541187          0.0603424
                                4.573411          -0.1978471
                                1.637494          -0.081034
                                0.819297          0.2321726
                                0.409924          0.2914643
                                0.2313            0.4336405
                                0.102619          0.213194
                                0.051344          0.0049848
[INPUT] 0    0    [1    /1   ]  0.846879             1
[INPUT] 0    0    [1    /1   ]  0.269659             1
[INPUT] 0    0    [1    /1   ]  0.109576             1
[INPUT] 1    0    [9    /1   ]  9.934169          0.0209076
                                3.886955          0.0572698
                                1.871016          0.1122682
                                0.935757          0.2130082
                                0.468003          0.2835815
                                0.239473          0.3011207
                                0.117063          0.2016934
                                0.058547          0.0453575
                                0.029281          0.0029775
[INPUT] 1    0    [1    /1   ]  0.804681             1
[INPUT] 1    0    [1    /1   ]  0.313254             1
[INPUT] 1    0    [1    /1   ]  0.105389             1
[INPUT] 2    0    [1    /1   ]  2.01376              1
[INPUT] 2    0    [1    /1   ]  0.684884             1
[INPUT] 2    0    [1    /1   ]  0.240171             1
[INPUT] 3    0    [1    /1   ]  0.457302             1
[INPUT] 3    0    [1    /1   ]  1.32493              1
[INPUT] 4    0    [1    /1   ]  1.03418              1
[INPUT] H
[INPUT] 0    0    [8    /1   ]  23.843185         0.0041149
                                10.212443         0.0104644
                                4.374164          0.0280111
                                1.873529          0.0758862
                                0.802465          0.1821062
                                0.343709          0.3485214
                                0.147217          0.3782313
                                0.063055          0.1164241
[INPUT] 0    0    [1    /1   ]  0.081856             1
[INPUT] 0    0    [1    /1   ]  0.233254             1
[INPUT] 0    0    [1    /1   ]  0.664673             1
[INPUT] 1    0    [1    /1   ]  0.284469             1
[INPUT] 1    0    [1    /1   ]  0.847159             1
[INPUT] 1    0    [1    /1   ]  2.522868             1
[INPUT] 2    0    [1    /1   ]  0.665279             1
[INPUT] 2    0    [1    /1   ]  2.048739             1
[INPUT] 3    0    [1    /1   ]  1.42146              1

nuclear repulsion = 21.52003622104
number of shells = 68
number of NR pGTOs = 324
number of NR cGTOs = 228
basis = ccecp-ccpvqz
ecp = ccecp
CPU time:         9.65


******** <class 'pyscf.df.df_jk.density_fit.<locals>.DFHF'> ********
method = DFHF-RKS-RHF
initial guess = minao
damping factor = 0
level_shift factor = 0
DIIS = <class 'pyscf.scf.diis.CDIIS'>
diis_start_cycle = 1
diis_space = 8
SCF conv_tol = 1e-09
SCF conv_tol_grad = None
SCF max_cycles = 200
direct_scf = True
direct_scf_tol = 1e-13
chkfile to save SCF result = pyscf.chk
max_memory 506626 MB (current use 106 MB)
XC library pyscf.dft.libxc version 5.1.7
    S. Lehtola, C. Steigemann, M. J. Oliveira, and M. A. Marques, SoftwareX 7, 1 (2018)
XC functionals = LDA_X,LDA_C_PZ
    P. A. M. Dirac, Math. Proc. Cambridge Philos. Soc. 26, 376 (1930)
    F. Bloch, Z. Phys. 57, 545 (1929)
    J. P. Perdew and A. Zunger, Phys. Rev. B 23, 5048 (1981)
radial grids: 
    Treutler-Ahlrichs [JCP 102, 346 (1995); DOI:10.1063/1.469408] (M4) radial grids
    
becke partition: Becke, JCP 88, 2547 (1988); DOI:10.1063/1.454033
pruning grids: <function nwchem_prune at 0x14fab4ea6730>
grids dens level: 3
symmetrized grids: False
atomic radii adjust function: <function treutler_atomic_radii_adjust at 0x14fab4ea6620>
small_rho_cutoff = 1e-07
Set gradient conv threshold to 3.16228e-05
atom C rad-grids = 75, ang-grids = [ 50  50  50  50  50  50  50  50  50  50  50  50  50  50  50  50  50  50
  50  50  50  50  50  86  86  86  86  86  86  86  86  86  86 266 266 266
 266 266 266 266 302 302 302 302 302 302 302 302 302 302 302 302 302 302
 302 302 302 302 302 302 266 266 266 266 266 266 266 266 266 266 266 266
 266 266 266]
atom S rad-grids = 80, ang-grids = [ 50  50  50  50  50  50  50  50  50  50  50  50  50  50  50  50  50  50
  50  50  50  50  50  50  86  86  86  86  86  86  86  86  86  86  86  86
  86 350 350 350 350 350 350 350 350 350 434 434 434 434 434 434 434 434
 434 434 434 434 434 434 434 434 434 434 350 350 350 350 350 350 350 350
 350 350 350 350 350 350 350 350]
atom H rad-grids = 50, ang-grids = [ 50  50  50  50  50  50  50  50  50  50  50  50  50  50  86  86  86  86
 266 266 266 266 302 302 302 302 302 302 302 302 302 302 302 302 302 266
 266 266 266 266 266 266 266 266 266 266 266 266 266 266]
tot grids = 72878
Drop grids 7188
    CPU time for setting up grids     55.30 sec, wall time      0.51 sec
nelec by numeric integration = 13.999862408421256
    CPU time for vxc     43.95 sec, wall time      0.35 sec
Even tempered Gaussians are generated as DF auxbasis for  S C H
  ETB auxbasis for S  [[0, [19.383808, 1]], [0, [9.691904, 1]], [0, [4.845952, 1]], [0, [2.422976, 1]], [0, [1.211488, 1]], [0, [0.605744, 1]], [0, [0.302872, 1]], [0, [0.151436, 1]], [1, [15.705532909913755, 1]], [1, [7.852766454956877, 1]], [1, [3.9263832274784387, 1]], [1, [1.9631916137392194, 1]], [1, [0.9815958068696097, 1]], [1, [0.49079790343480484, 1]], [1, [0.24539895171740242, 1]], [1, [0.12269947585870121, 1]], [2, [12.725248, 1]], [2, [6.362624, 1]], [2, [3.181312, 1]], [2, [1.590656, 1]], [2, [0.795328, 1]], [2, [0.397664, 1]], [2, [0.198832, 1]], [2, [0.099416, 1]], [3, [6.751975124276451, 1]], [3, [3.3759875621382256, 1]], [3, [1.6879937810691128, 1]], [3, [0.8439968905345564, 1]], [3, [0.4219984452672782, 1]], [3, [0.2109992226336391, 1]], [4, [3.582576, 1]], [4, [1.791288, 1]], [4, [0.895644, 1]], [4, [0.447822, 1]]]
  ETB auxbasis for C  [[0, [13.144064, 1]], [0, [6.572032, 1]], [0, [3.286016, 1]], [0, [1.643008, 1]], [0, [0.821504, 1]], [0, [0.410752, 1]], [0, [0.205376, 1]], [0, [0.102688, 1]], [1, [19.852159834527225, 1]], [1, [9.926079917263612, 1]], [1, [4.963039958631806, 1]], [1, [2.481519979315903, 1]], [1, [1.2407599896579515, 1]], [1, [0.6203799948289758, 1]], [1, [0.3101899974144879, 1]], [1, [0.15509499870724394, 1]], [1, [0.07754749935362197, 1]], [2, [14.991872, 1]], [2, [7.495936, 1]], [2, [3.747968, 1]], [2, [1.873984, 1]], [2, [0.936992, 1]], [2, [0.468496, 1]], [2, [0.234248, 1]], [2, [0.117124, 1]], [2, [0.058562, 1]], [3, [5.36701994787573, 1]], [3, [2.683509973937865, 1]], [3, [1.3417549869689325, 1]], [3, [0.6708774934844662, 1]], [3, [0.3354387467422331, 1]], [3, [0.16771937337111656, 1]], [4, [3.842736, 1]], [4, [1.921368, 1]], [4, [0.960684, 1]], [4, [0.480342, 1]]]
  ETB auxbasis for H  [[0, [32.28416, 1]], [0, [16.14208, 1]], [0, [8.07104, 1]], [0, [4.03552, 1]], [0, [2.01776, 1]], [0, [1.00888, 1]], [0, [0.50444, 1]], [0, [0.25222, 1]], [0, [0.12611, 1]], [1, [8.571507550502421, 1]], [1, [4.2857537752512105, 1]], [1, [2.1428768876256052, 1]], [1, [1.0714384438128026, 1]], [1, [0.5357192219064013, 1]], [1, [0.26785961095320066, 1]], [2, [4.551504, 1]], [2, [2.275752, 1]], [2, [1.137876, 1]], [2, [0.568938, 1]]]
num shells = 146, num cGTOs = 496
    CPU time for df-vj     33.31 sec, wall time      0.26 sec
E1 = -68.53081879728339  Ecoul = 34.33848063563674  Exc = -5.0924817379714975
init E= -17.7647836785781
cond(S) = 64917.443176006505
    CPU time for initialize scf    337.01 sec, wall time      3.13 sec
  HOMO = -0.262738292454776  LUMO = -0.062396390302994
  mo_energy =
[-8.00048459e-01 -6.64819287e-01 -4.81785201e-01 -4.73549603e-01
 -4.27112117e-01 -3.54925986e-01 -2.62738292e-01 -6.23963903e-02
 -2.98960691e-02  9.67176049e-03  3.07389679e-02  3.27679479e-02
  1.10083275e-01  1.12989443e-01  1.21181668e-01  1.26724319e-01
  1.79596783e-01  1.93451647e-01  2.30278192e-01  2.38711691e-01
  2.71171292e-01  2.75987939e-01  2.84643853e-01  2.91883905e-01
  3.21189643e-01  3.46540049e-01  4.17596182e-01  4.76920724e-01
  5.06181296e-01  5.17862005e-01  5.54379158e-01  5.79513139e-01
  6.13730555e-01  6.25963613e-01  6.29632148e-01  6.34300615e-01
  6.73388405e-01  7.22783727e-01  7.37090864e-01  7.67525682e-01
  8.38770520e-01  8.81934761e-01  8.88576703e-01  8.93930935e-01
  9.17970273e-01  9.33460232e-01  9.81867714e-01  9.84934550e-01
  1.01241396e+00  1.02595392e+00  1.09891772e+00  1.10795527e+00
  1.13121809e+00  1.15421536e+00  1.20400580e+00  1.20711784e+00
  1.22394437e+00  1.28547649e+00  1.29981596e+00  1.35726756e+00
  1.36665875e+00  1.49267168e+00  1.56192608e+00  1.59879634e+00
  1.68087303e+00  1.69263285e+00  1.71195737e+00  1.73121237e+00
  1.75880914e+00  1.78010101e+00  1.81878157e+00  1.86005748e+00
  1.86955803e+00  1.93090926e+00  1.93415322e+00  1.99394657e+00
  2.03278690e+00  2.09954510e+00  2.12373702e+00  2.14211515e+00
  2.14734586e+00  2.16521397e+00  2.20515010e+00  2.26213973e+00
  2.26877748e+00  2.29489086e+00  2.30953761e+00  2.36030388e+00
  2.41785121e+00  2.42662368e+00  2.50396401e+00  2.51529842e+00
  2.56403893e+00  2.57254266e+00  2.59642270e+00  2.61964189e+00
  2.68676424e+00  2.69686129e+00  2.74893546e+00  2.76866580e+00
  2.89982543e+00  2.91058080e+00  2.96044752e+00  2.96326116e+00
  2.99203366e+00  3.00676436e+00  3.04442526e+00  3.08213166e+00
  3.12816601e+00  3.16061302e+00  3.16190125e+00  3.18934604e+00
  3.20105656e+00  3.20883188e+00  3.32825762e+00  3.33633509e+00
  3.41141920e+00  3.41906428e+00  3.44824825e+00  3.48258372e+00
  3.49643672e+00  3.56598754e+00  3.58896030e+00  3.63258065e+00
  3.71614985e+00  3.71770970e+00  3.74470606e+00  3.75690446e+00
  3.79725316e+00  3.98400168e+00  4.00007579e+00  4.25674228e+00
  4.29337630e+00  4.36024813e+00  4.54374199e+00  5.00989314e+00
  5.10488096e+00  5.12674011e+00  5.15226795e+00  5.22666432e+00
  5.22778988e+00  5.47543576e+00  5.52415857e+00  5.54227736e+00
  5.69609015e+00  5.73179524e+00  5.75445871e+00  5.77452759e+00
  5.81447543e+00  5.85952251e+00  5.87680051e+00  5.93016711e+00
  5.94464882e+00  5.99464244e+00  5.99535996e+00  6.09201929e+00
  6.09234045e+00  6.12953080e+00  6.16616156e+00  6.18253420e+00
  6.25892231e+00  6.31747554e+00  6.39922583e+00  6.45293366e+00
  6.45500208e+00  6.53498371e+00  6.59245806e+00  6.83052177e+00
  6.86006312e+00  6.87912937e+00  6.88647472e+00  7.00046661e+00
  7.00661611e+00  7.10241559e+00  7.23677197e+00  7.24613309e+00
  7.32817248e+00  7.37660947e+00  7.38374437e+00  7.41763535e+00
  7.54945478e+00  7.56700366e+00  7.59992431e+00  7.61634637e+00
  7.62619095e+00  7.69922282e+00  7.83747727e+00  7.85082449e+00
  7.87456175e+00  7.94487229e+00  8.09518681e+00  8.10587248e+00
  8.13847408e+00  8.14553690e+00  8.16091660e+00  8.20063716e+00
  8.23884596e+00  8.24356187e+00  8.27214912e+00  8.30768427e+00
  8.32177398e+00  8.45149481e+00  8.57465187e+00  8.60367279e+00
  8.67685466e+00  8.67685555e+00  8.85110550e+00  8.86250265e+00
  8.89187948e+00  8.89341265e+00  9.02471078e+00  9.08122349e+00
  9.18581238e+00  9.82238384e+00  9.88921416e+00  9.89346365e+00
  1.00452505e+01  1.00459376e+01  1.00578625e+01  1.01150522e+01
  1.01306623e+01  1.03318304e+01  1.03498705e+01  1.06594878e+01
  1.22454461e+01  1.22537972e+01  1.50067065e+01  2.00254617e+01]
nelec by numeric integration = 14.000010945115466
    CPU time for vxc     37.16 sec, wall time      0.30 sec
    CPU time for df-vj     11.52 sec, wall time      0.10 sec
E1 = -70.68449328485191  Ecoul = 36.541782437917476  Exc = -5.443189244780147
cycle= 1 E= -18.0658638706746  delta_E= -0.301  |g|= 0.508  |ddm|= 4.69
    CPU time for cycle= 1     69.76 sec, wall time      0.59 sec
  HOMO = -0.16305151033004  LUMO = 0.00177009827221133
  mo_energy =
[-6.44044022e-01 -5.00861196e-01 -3.43605650e-01 -2.87157794e-01
 -2.65017057e-01 -2.40618389e-01 -1.63051510e-01  1.77009827e-03
  4.06749824e-02  7.95918402e-02  9.78613936e-02  9.82295759e-02
  1.65139025e-01  1.73982686e-01  1.84741383e-01  1.92373388e-01
  2.47741480e-01  2.57030406e-01  2.96170113e-01  3.03573537e-01
  3.38232226e-01  3.44947318e-01  3.85763035e-01  3.94449748e-01
  3.98986148e-01  4.01599936e-01  4.83346040e-01  5.33547407e-01
  5.62637339e-01  5.78882696e-01  6.04871453e-01  6.57265579e-01
  6.69820891e-01  6.70617425e-01  7.13577155e-01  7.19890195e-01
  7.73976796e-01  7.97935663e-01  8.02110101e-01  8.24271685e-01
  9.25326143e-01  9.41847617e-01  9.57466996e-01  9.60809905e-01
  9.86299110e-01  9.95143398e-01  1.05414670e+00  1.07959707e+00
  1.11055449e+00  1.11675710e+00  1.18996684e+00  1.19114082e+00
  1.20841262e+00  1.23411915e+00  1.27865400e+00  1.27966675e+00
  1.30013071e+00  1.34863496e+00  1.37598407e+00  1.43879155e+00
  1.44405236e+00  1.58598516e+00  1.69882646e+00  1.71081327e+00
  1.82369291e+00  1.82870327e+00  1.85092594e+00  1.87051439e+00
  1.88736764e+00  1.91534415e+00  1.96237543e+00  1.97202114e+00
  2.01537173e+00  2.03211102e+00  2.04633000e+00  2.06967401e+00
  2.11175906e+00  2.16591521e+00  2.20426923e+00  2.21568710e+00
  2.23892888e+00  2.25436582e+00  2.29579139e+00  2.34598535e+00
  2.35239153e+00  2.35779513e+00  2.38967086e+00  2.44207912e+00
  2.50505024e+00  2.51415564e+00  2.57387083e+00  2.60355930e+00
  2.64540870e+00  2.65361529e+00  2.65610865e+00  2.71592991e+00
  2.76212744e+00  2.77796092e+00  2.84826098e+00  2.85907137e+00
  2.97724595e+00  3.00826027e+00  3.04809322e+00  3.06809882e+00
  3.09532441e+00  3.12718767e+00  3.16753029e+00  3.19692613e+00
  3.24080398e+00  3.27919144e+00  3.28525869e+00  3.29560364e+00
  3.31513669e+00  3.32472568e+00  3.45219419e+00  3.45995849e+00
  3.51670395e+00  3.52807561e+00  3.55407068e+00  3.58157532e+00
  3.58539453e+00  3.69279535e+00  3.69986274e+00  3.74063181e+00
  3.83777143e+00  3.83962902e+00  3.87891970e+00  3.91835698e+00
  3.92332025e+00  4.12964778e+00  4.14007397e+00  4.33685579e+00
  4.37637249e+00  4.49456385e+00  4.65755590e+00  5.23819536e+00
  5.33189672e+00  5.35047103e+00  5.40237606e+00  5.45015476e+00
  5.45409465e+00  5.70988688e+00  5.75637922e+00  5.76204571e+00
  5.81793083e+00  5.89267308e+00  5.90935246e+00  5.93497279e+00
  5.94648387e+00  5.95657051e+00  5.98619110e+00  6.09630159e+00
  6.11835538e+00  6.16893909e+00  6.19026214e+00  6.22625881e+00
  6.23307758e+00  6.33412026e+00  6.34537162e+00  6.37309457e+00
  6.39843579e+00  6.41012244e+00  6.54590331e+00  6.60568725e+00
  6.65659980e+00  6.70409526e+00  6.71012056e+00  6.89261422e+00
  6.90784132e+00  7.03613358e+00  7.12301835e+00  7.14687357e+00
  7.14982596e+00  7.31038352e+00  7.37867368e+00  7.38840823e+00
  7.46783412e+00  7.51075924e+00  7.51278935e+00  7.59388508e+00
  7.66091959e+00  7.67909847e+00  7.70013181e+00  7.73062955e+00
  7.74660512e+00  7.80392710e+00  7.87373452e+00  7.89677016e+00
  7.97433649e+00  8.01160709e+00  8.13374994e+00  8.25080366e+00
  8.25369811e+00  8.27152174e+00  8.30615712e+00  8.34261519e+00
  8.36004264e+00  8.38825442e+00  8.44660579e+00  8.45031270e+00
  8.45086468e+00  8.48694925e+00  8.63716996e+00  8.66086148e+00
  8.78645723e+00  8.80886496e+00  8.89495357e+00  8.98301193e+00
  9.01735808e+00  9.02265326e+00  9.19317874e+00  9.24752157e+00
  9.31476698e+00  9.99764880e+00  1.00489507e+01  1.00526658e+01
  1.02293028e+01  1.02530095e+01  1.02618836e+01  1.03144084e+01
  1.03296667e+01  1.05456547e+01  1.05581563e+01  1.07311389e+01
  1.24789825e+01  1.24844904e+01  1.51365328e+01  2.04528086e+01]
nelec by numeric integration = 14.000013544264483
    CPU time for vxc     36.26 sec, wall time      0.29 sec
    CPU time for df-vj      9.73 sec, wall time      0.08 sec
E1 = -68.09227637102768  Ecoul = 33.67168858253401  Exc = -5.055960261633043
cycle= 2 E= -17.9565118290867  delta_E= 0.109  |g|= 0.772  |ddm|= 2.59
    CPU time for cycle= 2    130.30 sec, wall time      1.04 sec
  HOMO = -0.196229544759209  LUMO = -0.0206576694597061
  mo_energy =
[-7.21073058e-01 -5.85122401e-01 -4.10576314e-01 -3.90764745e-01
 -3.54679272e-01 -2.91586107e-01 -1.96229545e-01 -2.06576695e-02
  9.20530444e-03  4.11532086e-02  5.73441121e-02  5.95823166e-02
  1.38037812e-01  1.47709136e-01  1.49282791e-01  1.50332583e-01
  2.27271487e-01  2.28599797e-01  2.66598134e-01  2.76506051e-01
  3.03663076e-01  3.14125010e-01  3.22373823e-01  3.31822608e-01
  3.59700739e-01  3.73435298e-01  4.51003210e-01  5.07794730e-01
  5.34440009e-01  5.52867134e-01  5.76354798e-01  6.20309301e-01
  6.43918411e-01  6.50084105e-01  6.64240381e-01  6.68153991e-01
  7.14570821e-01  7.53652876e-01  7.65612801e-01  7.91872115e-01
  8.81620760e-01  9.06717264e-01  9.17230674e-01  9.22463822e-01
  9.49651160e-01  9.65415277e-01  1.02067019e+00  1.02811997e+00
  1.05631509e+00  1.07878479e+00  1.14963047e+00  1.15567748e+00
  1.17168157e+00  1.19658099e+00  1.24985692e+00  1.25023006e+00
  1.27062831e+00  1.32885237e+00  1.34612795e+00  1.40936695e+00
  1.41239796e+00  1.53875989e+00  1.61888433e+00  1.64092250e+00
  1.74240222e+00  1.74819872e+00  1.76917690e+00  1.78716368e+00
  1.81722624e+00  1.83478411e+00  1.87506574e+00  1.91755995e+00
  1.92905102e+00  1.97292988e+00  1.97754783e+00  2.02774661e+00
  2.07701195e+00  2.13388480e+00  2.16606815e+00  2.18166099e+00
  2.18573688e+00  2.19962478e+00  2.24731204e+00  2.29660349e+00
  2.30823356e+00  2.32556695e+00  2.34506781e+00  2.39677681e+00
  2.45884158e+00  2.46730702e+00  2.53716032e+00  2.55241597e+00
  2.60559489e+00  2.61257793e+00  2.63203611e+00  2.66059161e+00
  2.73146527e+00  2.73903520e+00  2.79734041e+00  2.79734589e+00
  2.94421953e+00  2.95860373e+00  3.00486051e+00  3.00644272e+00
  3.03713935e+00  3.05773730e+00  3.10052599e+00  3.14094728e+00
  3.18628197e+00  3.21695590e+00  3.22603179e+00  3.24749991e+00
  3.26269410e+00  3.26612087e+00  3.38949938e+00  3.40105440e+00
  3.47756311e+00  3.47766855e+00  3.50997636e+00  3.54514163e+00
  3.55639081e+00  3.62824518e+00  3.65574946e+00  3.69378361e+00
  3.77720996e+00  3.78513301e+00  3.80440022e+00  3.82055373e+00
  3.85262891e+00  4.05325368e+00  4.07399589e+00  4.31443835e+00
  4.34816838e+00  4.43383455e+00  4.60213238e+00  5.09868726e+00
  5.19763540e+00  5.21859253e+00  5.25017061e+00  5.31296890e+00
  5.31375109e+00  5.56814559e+00  5.62124364e+00  5.63257704e+00
  5.76988240e+00  5.79965167e+00  5.83148563e+00  5.83569468e+00
  5.86068627e+00  5.89499671e+00  5.91949055e+00  6.00811191e+00
  6.00830861e+00  6.06249115e+00  6.07291182e+00  6.14159764e+00
  6.14587545e+00  6.22232169e+00  6.24450555e+00  6.26297166e+00
  6.33117571e+00  6.35253528e+00  6.45912410e+00  6.52655529e+00
  6.53437545e+00  6.60119870e+00  6.64508262e+00  6.88962441e+00
  6.90881465e+00  6.96960951e+00  6.96989967e+00  7.05352620e+00
  7.05469002e+00  7.18773312e+00  7.29410857e+00  7.30399304e+00
  7.38410005e+00  7.43237611e+00  7.43484611e+00  7.48637209e+00
  7.59484719e+00  7.60920604e+00  7.63854083e+00  7.65918439e+00
  7.67337156e+00  7.74209566e+00  7.87063211e+00  7.87892292e+00
  7.91210456e+00  7.97760965e+00  8.13146177e+00  8.17822085e+00
  8.18811169e+00  8.20533590e+00  8.22019428e+00  8.26397651e+00
  8.30537657e+00  8.31485480e+00  8.32208389e+00  8.34902094e+00
  8.36845527e+00  8.48990618e+00  8.62599609e+00  8.64006744e+00
  8.73530312e+00  8.74664500e+00  8.89922093e+00  8.90920765e+00
  8.94470650e+00  8.94889817e+00  9.09208944e+00  9.14926147e+00
  9.26601412e+00  9.89321833e+00  9.95457456e+00  9.95822236e+00
  1.01223711e+01  1.01324081e+01  1.01409617e+01  1.01958508e+01
  1.02113938e+01  1.04198666e+01  1.04378141e+01  1.07151708e+01
  1.23433601e+01  1.23480194e+01  1.50950461e+01  2.01942857e+01]
nelec by numeric integration = 14.000012758567824
    CPU time for vxc     42.15 sec, wall time      0.37 sec
    CPU time for df-vj      7.74 sec, wall time      0.06 sec
E1 = -69.73620730364419  Ecoul = 35.347713845986476  Exc = -5.263252420993899
cycle= 3 E= -18.1317096576116  delta_E= -0.175  |g|= 0.0794  |ddm|= 1.52
    CPU time for cycle= 3    117.82 sec, wall time      0.96 sec
  HOMO = -0.205705754999926  LUMO = -0.0239946025043736
  mo_energy =
[-7.21329228e-01 -5.90321758e-01 -4.08853115e-01 -3.85940787e-01
 -3.55316620e-01 -3.00184191e-01 -2.05705755e-01 -2.39946025e-02
  5.14753048e-03  3.95579368e-02  5.98541898e-02  6.19463783e-02
  1.39314715e-01  1.44117455e-01  1.49452642e-01  1.51620587e-01
  2.22992778e-01  2.23378132e-01  2.62611197e-01  2.72894501e-01
  3.04904196e-01  3.09499817e-01  3.25466869e-01  3.34129020e-01
  3.58206568e-01  3.68916892e-01  4.49356755e-01  5.04802723e-01
  5.33087583e-01  5.50254977e-01  5.77107457e-01  6.16977740e-01
  6.41208503e-01  6.48744106e-01  6.65950495e-01  6.70609110e-01
  7.15491455e-01  7.55395472e-01  7.65379645e-01  7.92977143e-01
  8.80196125e-01  9.08576408e-01  9.19811218e-01  9.22543670e-01
  9.50477417e-01  9.61337245e-01  1.01761663e+00  1.02861501e+00
  1.05666198e+00  1.07204981e+00  1.14519836e+00  1.15113415e+00
  1.16743794e+00  1.19412324e+00  1.24414954e+00  1.24475703e+00
  1.26276487e+00  1.32078506e+00  1.34040399e+00  1.40184284e+00
  1.40681347e+00  1.53685238e+00  1.61972684e+00  1.64644172e+00
  1.74618032e+00  1.75086168e+00  1.77106263e+00  1.79109013e+00
  1.81637010e+00  1.83809834e+00  1.87830757e+00  1.91877135e+00
  1.93227273e+00  1.97231292e+00  1.97933767e+00  2.02940910e+00
  2.07154189e+00  2.13217652e+00  2.16468323e+00  2.18261458e+00
  2.18399233e+00  2.20178037e+00  2.24652660e+00  2.30078968e+00
  2.30772016e+00  2.32330432e+00  2.34394073e+00  2.39660814e+00
  2.45904495e+00  2.46696967e+00  2.53784249e+00  2.55422456e+00
  2.60280480e+00  2.61134357e+00  2.62761950e+00  2.66062453e+00
  2.72484356e+00  2.73633616e+00  2.79557335e+00  2.80213362e+00
  2.94014787e+00  2.95744985e+00  3.00222094e+00  3.00878776e+00
  3.03833837e+00  3.06035453e+00  3.10011797e+00  3.13776681e+00
  3.18191404e+00  3.21640546e+00  3.22260346e+00  3.24165219e+00
  3.25913521e+00  3.26220772e+00  3.38706406e+00  3.39617998e+00
  3.46833423e+00  3.47078540e+00  3.50242920e+00  3.53595981e+00
  3.54505693e+00  3.62672935e+00  3.64483471e+00  3.68583882e+00
  3.77335276e+00  3.77785528e+00  3.80613656e+00  3.82428798e+00
  3.84932627e+00  4.04850011e+00  4.06569851e+00  4.30208181e+00
  4.33720234e+00  4.42751331e+00  4.59406973e+00  5.10507941e+00
  5.20239128e+00  5.22361395e+00  5.25467132e+00  5.31824849e+00
  5.32018240e+00  5.57392571e+00  5.62605821e+00  5.63676816e+00
  5.77063386e+00  5.80228038e+00  5.83573288e+00  5.84103082e+00
  5.86243075e+00  5.89033008e+00  5.92594501e+00  6.01213572e+00
  6.01221669e+00  6.06530247e+00  6.07809726e+00  6.14810807e+00
  6.15066056e+00  6.22495710e+00  6.25008076e+00  6.26796640e+00
  6.33185472e+00  6.34354043e+00  6.45634490e+00  6.52671797e+00
  6.53946834e+00  6.60656322e+00  6.63809132e+00  6.87958705e+00
  6.90064231e+00  6.97076649e+00  6.97244380e+00  7.04645833e+00
  7.06164229e+00  7.19146458e+00  7.29980558e+00  7.30999114e+00
  7.38930854e+00  7.43778164e+00  7.44122043e+00  7.49135026e+00
  7.59967843e+00  7.61494928e+00  7.64516864e+00  7.66549847e+00
  7.67911425e+00  7.74749396e+00  7.87106165e+00  7.87226943e+00
  7.91708441e+00  7.97599686e+00  8.12721635e+00  8.18343256e+00
  8.19131573e+00  8.20722569e+00  8.22657795e+00  8.26859790e+00
  8.30877233e+00  8.32089084e+00  8.32767439e+00  8.34590194e+00
  8.37441716e+00  8.47971757e+00  8.61914893e+00  8.63090772e+00
  8.73405131e+00  8.73616339e+00  8.88931939e+00  8.91371478e+00
  8.94997250e+00  8.95442031e+00  9.09814234e+00  9.15510402e+00
  9.25110582e+00  9.89920178e+00  9.96094743e+00  9.96470097e+00
  1.01281689e+01  1.01376856e+01  1.01468861e+01  1.02016736e+01
  1.02170711e+01  1.04253331e+01  1.04427036e+01  1.07020507e+01
  1.23478972e+01  1.23532918e+01  1.50764301e+01  2.01946681e+01]
nelec by numeric integration = 14.000012362250118
    CPU time for vxc     42.12 sec, wall time      0.34 sec
    CPU time for df-vj      8.57 sec, wall time      0.07 sec
E1 = -69.72324885709824  Ecoul = 35.339031362321954  Exc = -5.269829026430685
cycle= 4 E= -18.134010300167  delta_E= -0.0023  |g|= 0.0162  |ddm|= 0.207
    CPU time for cycle= 4    121.58 sec, wall time      0.98 sec
  HOMO = -0.203772209173985  LUMO = -0.0230200818086204
  mo_energy =
[-7.20007993e-01 -5.89209850e-01 -4.08459518e-01 -3.86679979e-01
 -3.54457179e-01 -2.98194257e-01 -2.03772209e-01 -2.30200818e-02
  6.28986701e-03  3.97719142e-02  5.93509069e-02  6.13769892e-02
  1.39472244e-01  1.44922148e-01  1.49790663e-01  1.51589652e-01
  2.24006469e-01  2.24769857e-01  2.63641848e-01  2.73912038e-01
  3.04474451e-01  3.10299995e-01  3.24889427e-01  3.33584083e-01
  3.58860542e-01  3.69854891e-01  4.49890908e-01  5.05853855e-01
  5.33592375e-01  5.50861897e-01  5.77098822e-01  6.17975909e-01
  6.42122968e-01  6.49145862e-01  6.65964534e-01  6.70336959e-01
  7.15485309e-01  7.55107118e-01  7.65643878e-01  7.92744658e-01
  8.80850008e-01  9.08366611e-01  9.19230418e-01  9.22690136e-01
  9.50282200e-01  9.62269132e-01  1.01826191e+00  1.02861144e+00
  1.05690930e+00  1.07357642e+00  1.14663225e+00  1.15244660e+00
  1.16894309e+00  1.19491366e+00  1.24563150e+00  1.24615005e+00
  1.26451138e+00  1.32287496e+00  1.34186474e+00  1.40341464e+00
  1.40826381e+00  1.53782559e+00  1.62029007e+00  1.64622129e+00
  1.74561589e+00  1.75069207e+00  1.77138500e+00  1.79122485e+00
  1.81693295e+00  1.83804247e+00  1.87801790e+00  1.91913926e+00
  1.93227398e+00  1.97291274e+00  1.97941307e+00  2.02948681e+00
  2.07298777e+00  2.13304725e+00  2.16562935e+00  2.18362971e+00
  2.18395928e+00  2.20146290e+00  2.24687504e+00  2.30030498e+00
  2.30844829e+00  2.32427744e+00  2.34445836e+00  2.39673811e+00
  2.45912428e+00  2.46730300e+00  2.53827409e+00  2.55428398e+00
  2.60391687e+00  2.61208890e+00  2.62892176e+00  2.66091375e+00
  2.72656737e+00  2.73739565e+00  2.79663056e+00  2.80128932e+00
  2.94146249e+00  2.95840822e+00  3.00299510e+00  3.00880065e+00
  3.03859798e+00  3.06019056e+00  3.10039147e+00  3.13903854e+00
  3.18325738e+00  3.21690308e+00  3.22386693e+00  3.24320764e+00
  3.26016514e+00  3.26334778e+00  3.38798131e+00  3.39748557e+00
  3.47070147e+00  3.47252048e+00  3.50422392e+00  3.53791582e+00
  3.54754846e+00  3.62707603e+00  3.64736964e+00  3.68807242e+00
  3.77434511e+00  3.77948463e+00  3.80621690e+00  3.82370351e+00
  3.85043970e+00  4.05028056e+00  4.06808569e+00  4.30494911e+00
  4.34022144e+00  4.42942694e+00  4.59643956e+00  5.10448248e+00
  5.20160634e+00  5.22293773e+00  5.25391684e+00  5.31801567e+00
  5.31978494e+00  5.57335167e+00  5.62527626e+00  5.63620334e+00
  5.77125012e+00  5.80177276e+00  5.83547601e+00  5.84002267e+00
  5.86250772e+00  5.89206456e+00  5.92507552e+00  6.01185301e+00
  6.01190815e+00  6.06520146e+00  6.07787999e+00  6.14734668e+00
  6.15009340e+00  6.22439157e+00  6.24921279e+00  6.26698680e+00
  6.33225529e+00  6.34617034e+00  6.45725102e+00  6.52709645e+00
  6.53862322e+00  6.60606920e+00  6.64006447e+00  6.88224264e+00
  6.90309422e+00  6.97048249e+00  6.97138065e+00  7.04833096e+00
  7.06103649e+00  7.19072456e+00  7.29880627e+00  7.30881700e+00
  7.38835932e+00  7.43695490e+00  7.44021371e+00  7.49049774e+00
  7.59858452e+00  7.61376793e+00  7.64406531e+00  7.66441861e+00
  7.67795295e+00  7.74652517e+00  7.87144939e+00  7.87451255e+00
  7.91613593e+00  7.97687352e+00  8.12895242e+00  8.18245878e+00
  8.19095816e+00  8.20728169e+00  8.22568990e+00  8.26803076e+00
  8.30842288e+00  8.31975479e+00  8.32669895e+00  8.34682465e+00
  8.37333181e+00  8.48248853e+00  8.62132823e+00  8.63350377e+00
  8.73647481e+00  8.73697085e+00  8.89216045e+00  8.91315514e+00
  8.94941168e+00  8.95361412e+00  9.09744698e+00  9.15431596e+00
  9.25471957e+00  9.89827227e+00  9.95987815e+00  9.96366257e+00
  1.01268672e+01  1.01364637e+01  1.01457506e+01  1.02004860e+01
  1.02159405e+01  1.04241569e+01  1.04415688e+01  1.07053980e+01
  1.23462754e+01  1.23517596e+01  1.50807694e+01  2.01916281e+01]
nelec by numeric integration = 14.000012398869076
    CPU time for vxc     46.08 sec, wall time      0.37 sec
    CPU time for df-vj      8.81 sec, wall time      0.07 sec
E1 = -69.72123811273016  Ecoul = 35.33564174374787  Exc = -5.2685382902052265
cycle= 5 E= -18.1340984381475  delta_E= -8.81e-05  |g|= 0.00357  |ddm|= 0.047
    CPU time for cycle= 5    127.28 sec, wall time      1.05 sec
  HOMO = -0.204403062855034  LUMO = -0.0233345391942109
  mo_energy =
[-7.20669377e-01 -5.89542461e-01 -4.08792847e-01 -3.86805037e-01
 -3.54851854e-01 -2.98659691e-01 -2.04403063e-01 -2.33345392e-02
  5.88681839e-03  3.95870571e-02  5.92410714e-02  6.12500199e-02
  1.39297284e-01  1.44590172e-01  1.49553435e-01  1.51430398e-01
  2.23743891e-01  2.24323810e-01  2.63375165e-01  2.73502999e-01
  3.04432141e-01  3.09972772e-01  3.24789618e-01  3.33468790e-01
  3.58464803e-01  3.69588717e-01  4.49654534e-01  5.05456354e-01
  5.33398734e-01  5.50620241e-01  5.76904641e-01  6.17672944e-01
  6.41815382e-01  6.48881408e-01  6.65777787e-01  6.70204997e-01
  7.15337001e-01  7.55000193e-01  7.65459528e-01  7.92645486e-01
  8.80523149e-01  9.08178585e-01  9.19107190e-01  9.22483056e-01
  9.50115354e-01  9.61934471e-01  1.01794645e+00  1.02840497e+00
  1.05668578e+00  1.07300055e+00  1.14609960e+00  1.15193185e+00
  1.16847580e+00  1.19462029e+00  1.24513894e+00  1.24570027e+00
  1.26413965e+00  1.32236704e+00  1.34141816e+00  1.40302798e+00
  1.40785631e+00  1.53742314e+00  1.61993968e+00  1.64605806e+00
  1.74556394e+00  1.75056647e+00  1.77103641e+00  1.79093867e+00
  1.81659318e+00  1.83784638e+00  1.87789986e+00  1.91888939e+00
  1.93205613e+00  1.97262099e+00  1.97927421e+00  2.02932401e+00
  2.07260584e+00  2.13268870e+00  2.16534372e+00  2.18330534e+00
  2.18378379e+00  2.20131159e+00  2.24667719e+00  2.30014926e+00
  2.30809480e+00  2.32395535e+00  2.34411731e+00  2.39652155e+00
  2.45895166e+00  2.46710968e+00  2.53798450e+00  2.55404214e+00
  2.60360545e+00  2.61173302e+00  2.62849182e+00  2.66064374e+00
  2.72609818e+00  2.73699630e+00  2.79616430e+00  2.80124008e+00
  2.94096721e+00  2.95800305e+00  3.00263136e+00  3.00856828e+00
  3.03833356e+00  3.06001439e+00  3.10006875e+00  3.13846473e+00
  3.18269203e+00  3.21653276e+00  3.22325621e+00  3.24257301e+00
  3.25966536e+00  3.26289464e+00  3.38762158e+00  3.39700584e+00
  3.47008535e+00  3.47202781e+00  3.50363613e+00  3.53736587e+00
  3.54699771e+00  3.62678519e+00  3.64673633e+00  3.68746695e+00
  3.77389245e+00  3.77905858e+00  3.80594371e+00  3.82356665e+00
  3.85001299e+00  4.04968376e+00  4.06728676e+00  4.30410012e+00
  4.33939215e+00  4.42876711e+00  4.59571978e+00  5.10429271e+00
  5.20156932e+00  5.22287794e+00  5.25375714e+00  5.31771539e+00
  5.31952524e+00  5.57314087e+00  5.62513784e+00  5.63605654e+00
  5.77093289e+00  5.80163116e+00  5.83539763e+00  5.83996932e+00
  5.86230896e+00  5.89158100e+00  5.92518550e+00  6.01171379e+00
  6.01174251e+00  6.06505765e+00  6.07771105e+00  6.14736345e+00
  6.15002531e+00  6.22425358e+00  6.24912289e+00  6.26688177e+00
  6.33195118e+00  6.34547185e+00  6.45680374e+00  6.52679059e+00
  6.53852054e+00  6.60596046e+00  6.63942811e+00  6.88149682e+00
  6.90244726e+00  6.97017240e+00  6.97117793e+00  7.04774339e+00
  7.06090294e+00  7.19059713e+00  7.29885196e+00  7.30888407e+00
  7.38834595e+00  7.43691007e+00  7.44023168e+00  7.49044791e+00
  7.59856700e+00  7.61378867e+00  7.64412486e+00  7.66444496e+00
  7.67793681e+00  7.74651991e+00  7.87121264e+00  7.87393669e+00
  7.91612487e+00  7.97653494e+00  8.12847898e+00  8.18242108e+00
  8.19086844e+00  8.20712160e+00  8.22572238e+00  8.26797537e+00
  8.30828808e+00  8.31977654e+00  8.32669145e+00  8.34647288e+00
  8.37337036e+00  8.48175494e+00  8.62068476e+00  8.63282266e+00
  8.73611600e+00  8.73619235e+00  8.89139956e+00  8.91310826e+00
  8.94941346e+00  8.95361573e+00  9.09738716e+00  9.15425105e+00
  9.25378755e+00  9.89822813e+00  9.95989790e+00  9.96369620e+00
  1.01269191e+01  1.01364393e+01  1.01457482e+01  1.02005101e+01
  1.02159654e+01  1.04241637e+01  1.04415509e+01  1.07044700e+01
  1.23462626e+01  1.23517918e+01  1.50795160e+01  2.01914984e+01]
nelec by numeric integration = 14.00001239244102
    CPU time for vxc     34.62 sec, wall time      0.28 sec
    CPU time for df-vj      8.23 sec, wall time      0.07 sec
E1 = -69.72664667290054  Ecoul = 35.341786684080816  Exc = -5.269278671538931
cycle= 6 E= -18.1341024393187  delta_E= -4e-06  |g|= 0.000612  |ddm|= 0.0117
    CPU time for cycle= 6    115.33 sec, wall time      0.96 sec
  HOMO = -0.204356793946739  LUMO = -0.0233563220010261
  mo_energy =
[-7.20632347e-01 -5.89559110e-01 -4.08795423e-01 -3.86812833e-01
 -3.54872432e-01 -2.98674885e-01 -2.04356794e-01 -2.33563220e-02
  5.88292609e-03  3.95629734e-02  5.92124826e-02  6.12321172e-02
  1.39284933e-01  1.44588186e-01  1.49540112e-01  1.51419246e-01
  2.23721534e-01  2.24338139e-01  2.63349980e-01  2.73515810e-01
  3.04403110e-01  3.09975946e-01  3.24765122e-01  3.33453428e-01
  3.58484989e-01  3.69568804e-01  4.49635890e-01  5.05463030e-01
  5.33363935e-01  5.50605027e-01  5.76889502e-01  6.17657443e-01
  6.41805720e-01  6.48869022e-01  6.65760014e-01  6.70185976e-01
  7.15320650e-01  7.54979248e-01  7.65434325e-01  7.92621907e-01
  8.80518509e-01  9.08161271e-01  9.19084113e-01  9.22459603e-01
  9.50097417e-01  9.61918188e-01  1.01794277e+00  1.02838943e+00
  1.05665787e+00  1.07303545e+00  1.14611782e+00  1.15195817e+00
  1.16847250e+00  1.19461068e+00  1.24516135e+00  1.24570517e+00
  1.26411307e+00  1.32236193e+00  1.34142918e+00  1.40301642e+00
  1.40785136e+00  1.53741670e+00  1.61993441e+00  1.64604150e+00
  1.74555110e+00  1.75054368e+00  1.77104392e+00  1.79093973e+00
  1.81660456e+00  1.83783874e+00  1.87788615e+00  1.91887713e+00
  1.93204485e+00  1.97261364e+00  1.97925358e+00  2.02930539e+00
  2.07259741e+00  2.13269204e+00  2.16531603e+00  2.18329139e+00
  2.18376952e+00  2.20129829e+00  2.24664603e+00  2.30012505e+00
  2.30808756e+00  2.32393325e+00  2.34411277e+00  2.39650221e+00
  2.45893135e+00  2.46707650e+00  2.53797042e+00  2.55404290e+00
  2.60357358e+00  2.61172651e+00  2.62849119e+00  2.66063794e+00
  2.72608691e+00  2.73699061e+00  2.79616859e+00  2.80120445e+00
  2.94098387e+00  2.95800792e+00  3.00262988e+00  3.00856227e+00
  3.03831947e+00  3.05999927e+00  3.10006850e+00  3.13848903e+00
  3.18271746e+00  3.21654040e+00  3.22330483e+00  3.24262331e+00
  3.25969604e+00  3.26290873e+00  3.38761014e+00  3.39701196e+00
  3.47007951e+00  3.47203764e+00  3.50366245e+00  3.53738689e+00
  3.54699023e+00  3.62676791e+00  3.64674685e+00  3.68747253e+00
  3.77390533e+00  3.77904615e+00  3.80593228e+00  3.82353839e+00
  3.85000845e+00  4.04968449e+00  4.06733370e+00  4.30415627e+00
  4.33942608e+00  4.42879385e+00  4.59574356e+00  5.10427094e+00
  5.20154440e+00  5.22284816e+00  5.25373555e+00  5.31770564e+00
  5.31951218e+00  5.57312219e+00  5.62512255e+00  5.63603367e+00
  5.77092693e+00  5.80161114e+00  5.83535922e+00  5.83992920e+00
  5.86229722e+00  5.89156759e+00  5.92515127e+00  6.01169644e+00
  6.01172555e+00  6.06503086e+00  6.07768763e+00  6.14732260e+00
  6.15001140e+00  6.22423882e+00  6.24908578e+00  6.26686062e+00
  6.33193443e+00  6.34547327e+00  6.45679859e+00  6.52676816e+00
  6.53850223e+00  6.60593752e+00  6.63943076e+00  6.88150831e+00
  6.90244210e+00  6.97015287e+00  6.97115621e+00  7.04773428e+00
  7.06087828e+00  7.19057647e+00  7.29880925e+00  7.30884824e+00
  7.38830816e+00  7.43688734e+00  7.44018872e+00  7.49041284e+00
  7.59854701e+00  7.61374958e+00  7.64407120e+00  7.66438880e+00
  7.67791735e+00  7.74648379e+00  7.87117853e+00  7.87392400e+00
  7.91609017e+00  7.97651186e+00  8.12845892e+00  8.18239576e+00
  8.19083138e+00  8.20710357e+00  8.22566792e+00  8.26795808e+00
  8.30825665e+00  8.31973033e+00  8.32666274e+00  8.34644467e+00
  8.37333267e+00  8.48176372e+00  8.62069464e+00  8.63282491e+00
  8.73617337e+00  8.73617798e+00  8.89140139e+00  8.91307971e+00
  8.94935560e+00  8.95358901e+00  9.09734349e+00  9.15422523e+00
  9.25382765e+00  9.89819013e+00  9.95986539e+00  9.96365243e+00
  1.01268650e+01  1.01364140e+01  1.01456949e+01  1.02004753e+01
  1.02159225e+01  1.04241253e+01  1.04415108e+01  1.07045083e+01
  1.23462391e+01  1.23517287e+01  1.50796241e+01  2.01914811e+01]
nelec by numeric integration = 14.000012391696075
    CPU time for vxc     44.76 sec, wall time      0.36 sec
    CPU time for df-vj      7.41 sec, wall time      0.06 sec
E1 = -69.72571444048695  Ecoul = 35.34076643729346  Exc = -5.269190781106524
cycle= 7 E= -18.13410256326  delta_E= -1.24e-07  |g|= 0.000111  |ddm|= 0.00161
    CPU time for cycle= 7    128.67 sec, wall time      1.13 sec
  HOMO = -0.204377152609501  LUMO = -0.0233636522481703
  mo_energy =
[-7.20648584e-01 -5.89570635e-01 -4.08806889e-01 -3.86824398e-01
 -3.54878936e-01 -2.98689944e-01 -2.04377153e-01 -2.33636522e-02
  5.87686654e-03  3.95537580e-02  5.92063858e-02  6.12251755e-02
  1.39277820e-01  1.44581247e-01  1.49533772e-01  1.51411030e-01
  2.23712472e-01  2.24324122e-01  2.63339484e-01  2.73503569e-01
  3.04397279e-01  3.09965517e-01  3.24760361e-01  3.33446860e-01
  3.58471937e-01  3.69563288e-01  4.49628612e-01  5.05453128e-01
  5.33357548e-01  5.50594957e-01  5.76880915e-01  6.17647212e-01
  6.41797039e-01  6.48863421e-01  6.65754124e-01  6.70177839e-01
  7.15312639e-01  7.54971017e-01  7.65426995e-01  7.92612736e-01
  8.80507259e-01  9.08151517e-01  9.19074235e-01  9.22450735e-01
  9.50088160e-01  9.61912932e-01  1.01793488e+00  1.02837861e+00
  1.05665007e+00  1.07301821e+00  1.14610159e+00  1.15194122e+00
  1.16846133e+00  1.19459801e+00  1.24514524e+00  1.24569237e+00
  1.26410274e+00  1.32235311e+00  1.34141565e+00  1.40300448e+00
  1.40783868e+00  1.53740841e+00  1.61992574e+00  1.64603322e+00
  1.74553891e+00  1.75053610e+00  1.77103195e+00  1.79092889e+00
  1.81659033e+00  1.83782791e+00  1.87787583e+00  1.91886891e+00
  1.93203582e+00  1.97260597e+00  1.97924435e+00  2.02929812e+00
  2.07258301e+00  2.13268557e+00  2.16530851e+00  2.18328685e+00
  2.18375925e+00  2.20128929e+00  2.24663686e+00  2.30011716e+00
  2.30808166e+00  2.32392934e+00  2.34410321e+00  2.39649497e+00
  2.45892021e+00  2.46706821e+00  2.53796320e+00  2.55402920e+00
  2.60356406e+00  2.61171670e+00  2.62848538e+00  2.66062471e+00
  2.72607712e+00  2.73698322e+00  2.79615519e+00  2.80119594e+00
  2.94097113e+00  2.95799524e+00  3.00261899e+00  3.00854786e+00
  3.03830758e+00  3.05998685e+00  3.10005412e+00  3.13847343e+00
  3.18269920e+00  3.21652496e+00  3.22328359e+00  3.24259911e+00
  3.25967540e+00  3.26289173e+00  3.38759528e+00  3.39699402e+00
  3.47006292e+00  3.47202165e+00  3.50364348e+00  3.53736760e+00
  3.54697668e+00  3.62675615e+00  3.64672876e+00  3.68745639e+00
  3.77388915e+00  3.77903134e+00  3.80592184e+00  3.82353052e+00
  3.84999287e+00  4.04966897e+00  4.06730870e+00  4.30413544e+00
  4.33940706e+00  4.42877585e+00  4.59572886e+00  5.10426526e+00
  5.20153374e+00  5.22283999e+00  5.25372868e+00  5.31769878e+00
  5.31950533e+00  5.57311658e+00  5.62511313e+00  5.63602620e+00
  5.77091991e+00  5.80160410e+00  5.83535461e+00  5.83992416e+00
  5.86229107e+00  5.89156985e+00  5.92514064e+00  6.01168758e+00
  6.01171360e+00  6.06502404e+00  6.07767787e+00  6.14731596e+00
  6.15000027e+00  6.22422842e+00  6.24908037e+00  6.26685252e+00
  6.33192933e+00  6.34547624e+00  6.45679549e+00  6.52676435e+00
  6.53849210e+00  6.60592823e+00  6.63942824e+00  6.88150964e+00
  6.90244686e+00  6.97015078e+00  6.97115313e+00  7.04773439e+00
  7.06087060e+00  7.19056549e+00  7.29880067e+00  7.30883788e+00
  7.38830012e+00  7.43687666e+00  7.44018189e+00  7.49040513e+00
  7.59853616e+00  7.61374155e+00  7.64406648e+00  7.66438579e+00
  7.67790641e+00  7.74647605e+00  7.87117943e+00  7.87393247e+00
  7.91608262e+00  7.97651341e+00  8.12846501e+00  8.18238681e+00
  8.19082795e+00  8.20709586e+00  8.22566378e+00  8.26794674e+00
  8.30825281e+00  8.31972492e+00  8.32665360e+00  8.34644632e+00
  8.37332417e+00  8.48176589e+00  8.62068737e+00  8.63282338e+00
  8.73614799e+00  8.73616808e+00  8.89140725e+00  8.91306742e+00
  8.94935128e+00  8.95357613e+00  9.09733732e+00  9.15421539e+00
  9.25379997e+00  9.89818285e+00  9.95985494e+00  9.96364477e+00
  1.01268595e+01  1.01364029e+01  1.01456902e+01  1.02004656e+01
  1.02159148e+01  1.04241173e+01  1.04415026e+01  1.07044974e+01
  1.23462285e+01  1.23517273e+01  1.50795865e+01  2.01914844e+01]
nelec by numeric integration = 14.000012391210063
    CPU time for vxc     38.93 sec, wall time      0.31 sec
    CPU time for df-vj      7.38 sec, wall time      0.06 sec
E1 = -69.7258638675748  Ecoul = 35.34093598746599  Exc = -5.269210907843933
cycle= 8 E= -18.1341025669128  delta_E= -3.65e-09  |g|= 4.07e-05  |ddm|= 0.000447
    CPU time for cycle= 8    128.38 sec, wall time      1.08 sec
  HOMO = -0.20437510098586  LUMO = -0.0233626796943334
  mo_energy =
[-7.20647229e-01 -5.89570637e-01 -4.08805875e-01 -3.86824533e-01
 -3.54878557e-01 -2.98686859e-01 -2.04375101e-01 -2.33626797e-02
  5.87617542e-03  3.95546786e-02  5.92072673e-02  6.12247649e-02
  1.39277903e-01  1.44580792e-01  1.49533583e-01  1.51412132e-01
  2.23714341e-01  2.24325233e-01  2.63341326e-01  2.73504697e-01
  3.04397769e-01  3.09966174e-01  3.24760765e-01  3.33446789e-01
  3.58472801e-01  3.69563542e-01  4.49629224e-01  5.05454040e-01
  5.33358057e-01  5.50595298e-01  5.76880754e-01  6.17648812e-01
  6.41797049e-01  6.48862303e-01  6.65753455e-01  6.70178871e-01
  7.15312833e-01  7.54971947e-01  7.65427140e-01  7.92613329e-01
  8.80507558e-01  9.08152048e-01  9.19074624e-01  9.22452009e-01
  9.50088034e-01  9.61912543e-01  1.01793390e+00  1.02837902e+00
  1.05665150e+00  1.07301994e+00  1.14610414e+00  1.15194333e+00
  1.16846207e+00  1.19459962e+00  1.24514730e+00  1.24569336e+00
  1.26410497e+00  1.32235339e+00  1.34141700e+00  1.40300613e+00
  1.40784083e+00  1.53740887e+00  1.61992623e+00  1.64603376e+00
  1.74553913e+00  1.75053582e+00  1.77103341e+00  1.79092922e+00
  1.81659123e+00  1.83782825e+00  1.87787617e+00  1.91886860e+00
  1.93203559e+00  1.97260522e+00  1.97924475e+00  2.02929741e+00
  2.07258584e+00  2.13268291e+00  2.16530969e+00  2.18328473e+00
  2.18375950e+00  2.20128834e+00  2.24663884e+00  2.30011778e+00
  2.30807997e+00  2.32392773e+00  2.34410273e+00  2.39649365e+00
  2.45892162e+00  2.46706948e+00  2.53796293e+00  2.55402936e+00
  2.60356615e+00  2.61171655e+00  2.62848371e+00  2.66062528e+00
  2.72607764e+00  2.73698209e+00  2.79615675e+00  2.80119642e+00
  2.94097082e+00  2.95799601e+00  3.00261897e+00  3.00854935e+00
  3.03830836e+00  3.05998813e+00  3.10005482e+00  3.13847482e+00
  3.18270142e+00  3.21652676e+00  3.22328523e+00  3.24260247e+00
  3.25967852e+00  3.26289474e+00  3.38759802e+00  3.39699669e+00
  3.47006622e+00  3.47202378e+00  3.50364588e+00  3.53737030e+00
  3.54697851e+00  3.62675714e+00  3.64673192e+00  3.68745863e+00
  3.77389064e+00  3.77903370e+00  3.80592254e+00  3.82353155e+00
  3.84999532e+00  4.04967187e+00  4.06731266e+00  4.30413706e+00
  4.33940901e+00  4.42877784e+00  4.59572946e+00  5.10426527e+00
  5.20153352e+00  5.22284027e+00  5.25372861e+00  5.31769854e+00
  5.31950614e+00  5.57311655e+00  5.62511290e+00  5.63602612e+00
  5.77091800e+00  5.80160270e+00  5.83535478e+00  5.83992484e+00
  5.86228865e+00  5.89156494e+00  5.92514130e+00  6.01168812e+00
  6.01171295e+00  6.06502300e+00  6.07767918e+00  6.14731748e+00
  6.14999972e+00  6.22422774e+00  6.24908082e+00  6.26685230e+00
  6.33192740e+00  6.34546984e+00  6.45679259e+00  6.52676306e+00
  6.53849205e+00  6.60592875e+00  6.63942436e+00  6.88150347e+00
  6.90244043e+00  6.97014923e+00  6.97115240e+00  7.04773000e+00
  7.06087120e+00  7.19056615e+00  7.29880126e+00  7.30883846e+00
  7.38830111e+00  7.43687652e+00  7.44018305e+00  7.49040594e+00
  7.59853570e+00  7.61374231e+00  7.64406815e+00  7.66438741e+00
  7.67790621e+00  7.74647679e+00  7.87117663e+00  7.87392436e+00
  7.91608292e+00  7.97650902e+00  8.12845925e+00  8.18238689e+00
  8.19082720e+00  8.20709344e+00  8.22566554e+00  8.26794628e+00
  8.30825160e+00  8.31972596e+00  8.32665372e+00  8.34644224e+00
  8.37332505e+00  8.48175965e+00  8.62068567e+00  8.63281906e+00
  8.73615094e+00  8.73616824e+00  8.89139953e+00  8.91306835e+00
  8.94935231e+00  8.95357644e+00  9.09733850e+00  9.15421565e+00
  9.25380527e+00  9.89818372e+00  9.95985539e+00  9.96364561e+00
  1.01268606e+01  1.01364026e+01  1.01456912e+01  1.02004660e+01
  1.02159153e+01  1.04241176e+01  1.04415029e+01  1.07044953e+01
  1.23462281e+01  1.23517285e+01  1.50795931e+01  2.01914836e+01]
nelec by numeric integration = 14.000012391474163
    CPU time for vxc     45.67 sec, wall time      0.36 sec
    CPU time for df-vj      8.05 sec, wall time      0.06 sec
E1 = -69.72584552207283  Ecoul = 35.34091495162961  Exc = -5.269208218091892
cycle= 9 E= -18.1341025674951  delta_E= -5.82e-10  |g|= 8.55e-06  |ddm|= 0.000102
    CPU time for cycle= 9    131.20 sec, wall time      1.10 sec
  HOMO = -0.204376010088347  LUMO = -0.0233629226378206
  mo_energy =
[-7.20647283e-01 -5.89570278e-01 -4.08805858e-01 -3.86823768e-01
 -3.54878618e-01 -2.98687729e-01 -2.04376010e-01 -2.33629226e-02
  5.87650218e-03  3.95545566e-02  5.92070253e-02  6.12252458e-02
  1.39278384e-01  1.44580878e-01  1.49534020e-01  1.51411854e-01
  2.23713814e-01  2.24324943e-01  2.63341074e-01  2.73504204e-01
  3.04397861e-01  3.09965823e-01  3.24760856e-01  3.33447096e-01
  3.58472749e-01  3.69563515e-01  4.49629177e-01  5.05453657e-01
  5.33358118e-01  5.50595548e-01  5.76881178e-01  6.17648487e-01
  6.41797343e-01  6.48862707e-01  6.65754120e-01  6.70178573e-01
  7.15313264e-01  7.54971775e-01  7.65427498e-01  7.92613627e-01
  8.80507727e-01  9.08152292e-01  9.19074905e-01  9.22451409e-01
  9.50088514e-01  9.61912428e-01  1.01793426e+00  1.02837928e+00
  1.05665103e+00  1.07301937e+00  1.14610348e+00  1.15194263e+00
  1.16846225e+00  1.19459960e+00  1.24514651e+00  1.24569333e+00
  1.26410437e+00  1.32235332e+00  1.34141653e+00  1.40300560e+00
  1.40784011e+00  1.53740875e+00  1.61992616e+00  1.64603401e+00
  1.74553968e+00  1.75053619e+00  1.77103292e+00  1.79092959e+00
  1.81659115e+00  1.83782856e+00  1.87787648e+00  1.91886895e+00
  1.93203621e+00  1.97260576e+00  1.97924497e+00  2.02929816e+00
  2.07258506e+00  2.13268426e+00  2.16530937e+00  2.18328565e+00
  2.18376016e+00  2.20128958e+00  2.24663836e+00  2.30011814e+00
  2.30808086e+00  2.32392862e+00  2.34410359e+00  2.39649481e+00
  2.45892161e+00  2.46706944e+00  2.53796335e+00  2.55403042e+00
  2.60356564e+00  2.61171719e+00  2.62848424e+00  2.66062584e+00
  2.72607767e+00  2.73698284e+00  2.79615666e+00  2.80119697e+00
  2.94097132e+00  2.95799600e+00  3.00261927e+00  3.00854938e+00
  3.03830870e+00  3.05998829e+00  3.10005528e+00  3.13847463e+00
  3.18270107e+00  3.21652666e+00  3.22328527e+00  3.24260166e+00
  3.25967779e+00  3.26289357e+00  3.38759753e+00  3.39699630e+00
  3.47006552e+00  3.47202312e+00  3.50364525e+00  3.53736948e+00
  3.54697795e+00  3.62675729e+00  3.64673091e+00  3.68745841e+00
  3.77389056e+00  3.77903312e+00  3.80592270e+00  3.82353131e+00
  3.84999504e+00  4.04967140e+00  4.06731208e+00  4.30413669e+00
  4.33940897e+00  4.42877765e+00  4.59572972e+00  5.10426527e+00
  5.20153405e+00  5.22284007e+00  5.25372863e+00  5.31769879e+00
  5.31950565e+00  5.57311652e+00  5.62511328e+00  5.63602626e+00
  5.77091902e+00  5.80160383e+00  5.83535495e+00  5.83992478e+00
  5.86229038e+00  5.89156660e+00  5.92514224e+00  6.01168868e+00
  6.01171408e+00  6.06502353e+00  6.07767898e+00  6.14731737e+00
  6.15000113e+00  6.22422834e+00  6.24908081e+00  6.26685280e+00
  6.33192840e+00  6.34547197e+00  6.45679367e+00  6.52676365e+00
  6.53849286e+00  6.60592925e+00  6.63942591e+00  6.88150547e+00
  6.90244245e+00  6.97014965e+00  6.97115241e+00  7.04773163e+00
  7.06087164e+00  7.19056643e+00  7.29880205e+00  7.30883932e+00
  7.38830175e+00  7.43687802e+00  7.44018344e+00  7.49040615e+00
  7.59853744e+00  7.61374326e+00  7.64406843e+00  7.66438737e+00
  7.67790797e+00  7.74647776e+00  7.87117802e+00  7.87392706e+00
  7.91608396e+00  7.97651099e+00  8.12846103e+00  8.18238787e+00
  8.19082815e+00  8.20709562e+00  8.22566531e+00  8.26794778e+00
  8.30825259e+00  8.31972607e+00  8.32665495e+00  8.34644373e+00
  8.37332589e+00  8.48176162e+00  8.62068662e+00  8.63282070e+00
  8.73615083e+00  8.73616906e+00  8.89140211e+00  8.91306940e+00
  8.94935247e+00  8.95357800e+00  9.09733861e+00  9.15421653e+00
  9.25380472e+00  9.89818415e+00  9.95985650e+00  9.96364615e+00
  1.01268609e+01  1.01364039e+01  1.01456912e+01  1.02004667e+01
  1.02159158e+01  1.04241181e+01  1.04415035e+01  1.07044965e+01
  1.23462294e+01  1.23517280e+01  1.50795922e+01  2.01914827e+01]
nelec by numeric integration = 14.000012391360725
    CPU time for vxc     34.62 sec, wall time      0.28 sec
    CPU time for df-vj      9.48 sec, wall time      0.08 sec
E1 = -69.72585377574343  Ecoul = 35.340924215183165  Exc = -5.269209227956786
Extra cycle  E= -18.1341025674771  delta_E= 1.81e-11  |g|= 1.1e-05  |ddm|= 3.54e-05
    CPU time for scf_cycle   1509.95 sec, wall time     12.99 sec
    CPU time for SCF   1509.95 sec, wall time     12.99 sec
converged SCF energy = -18.1341025674771
