#INFO: **** input file is /home/nkousuke/lustre/toBeSync/turboRVB/05turbo-genius-development/turbogenius_paper/04data/sanity_checks/02pyscf_prep_LDA_via_trexio/00open_boundary/results/SiH4/pyscf-LDA-workflow/run.py ****

from pyscf_wrapper import Pyscf_wrapper

# input variables
pyscf_chkfile="pyscf.chk"
structure_file="SiH4.xyz"

# input variables
omp_num_threads=128
charge=0
spin=0
basis="ccecp-ccpvqz"
ecp="ccecp"
scf_method="DFT"
dft_xc="LDA_X,LDA_C_PZ"
solver_newton=False
MP2_flag=False
CCSD_flag=False
pyscf_output="out.pyscf"
twist_average=False
exp_to_discard=0.1
kpt=[0.0, 0.0, 0.0]
kpt_grid=[1, 1, 1]
smearing_method="fermi"
smearing_sigma=0.0

pyscf_calc=Pyscf_wrapper(
                        structure_file=structure_file,
                        chkfile=pyscf_chkfile,
                        )

pyscf_calc.run_pyscf(
                  omp_num_threads=omp_num_threads,
                  charge=charge,
                  spin=spin,
                  basis=basis,
                  ecp=ecp,
                  scf_method=scf_method,
                  dft_xc=dft_xc,
                  solver_newton=solver_newton,
                  MP2_flag=MP2_flag,
                  CCSD_flag=CCSD_flag,
                  pyscf_output=pyscf_output,
                  twist_average=twist_average,
                  exp_to_discard=exp_to_discard,
                  kpt=kpt,
                  kpt_grid=kpt_grid,
                  smearing_method=smearing_method,
                  smearing_sigma=smearing_sigma
                  )
                #INFO: ******************** input file end ********************


System: uname_result(system='Linux', node='spcc-205', release='5.4.0-66-generic', version='#74-Ubuntu SMP Wed Jan 27 22:54:38 UTC 2021', machine='x86_64', processor='x86_64')  Threads 128
Python 3.7.3 (default, Mar 27 2019, 22:11:17) 
[GCC 7.3.0]
numpy 1.20.1  scipy 1.7.3
Date: Thu Dec 22 06:17:03 2022
PySCF version 2.0.1
PySCF path  /home/nkousuke/application/anaconda3/lib/python3.7/site-packages/pyscf

[CONFIG] conf_file /home/nkousuke/.pyscf_conf.py
[INPUT] verbose = 5
[INPUT] max_memory = 507439.7578125 
[INPUT] num. atoms = 5
[INPUT] num. electrons = 8
[INPUT] charge = 0
[INPUT] spin (= nelec alpha-beta = 2S) = 0
[INPUT] symmetry False subgroup None
[INPUT] Mole.unit = A
[INPUT]  1 Si     0.000000000000   0.000000000000   0.000000000000 AA    0.000000000000   0.000000000000   0.000000000000 Bohr
[INPUT]  2 H      0.852575000000   0.852575000000   0.852575000000 AA    1.611133250651   1.611133250651   1.611133250651 Bohr
[INPUT]  3 H     -0.852575000000  -0.852575000000   0.852575000000 AA   -1.611133250651  -1.611133250651   1.611133250651 Bohr
[INPUT]  4 H     -0.852575000000   0.852575000000  -0.852575000000 AA   -1.611133250651   1.611133250651  -1.611133250651 Bohr
[INPUT]  5 H      0.852575000000  -0.852575000000  -0.852575000000 AA    1.611133250651  -1.611133250651  -1.611133250651 Bohr
[INPUT] ---------------- BASIS SET ---------------- 
[INPUT] l, kappa, [nprim/nctr], expnt,             c_1 c_2 ...
[INPUT] H
[INPUT] 0    0    [8    /1   ]  23.843185         0.0041149
                                10.212443         0.0104644
                                4.374164          0.0280111
                                1.873529          0.0758862
                                0.802465          0.1821062
                                0.343709          0.3485214
                                0.147217          0.3782313
                                0.063055          0.1164241
[INPUT] 0    0    [1    /1   ]  0.081856             1
[INPUT] 0    0    [1    /1   ]  0.233254             1
[INPUT] 0    0    [1    /1   ]  0.664673             1
[INPUT] 1    0    [1    /1   ]  0.284469             1
[INPUT] 1    0    [1    /1   ]  0.847159             1
[INPUT] 1    0    [1    /1   ]  2.522868             1
[INPUT] 2    0    [1    /1   ]  0.665279             1
[INPUT] 2    0    [1    /1   ]  2.048739             1
[INPUT] 3    0    [1    /1   ]  1.42146              1
[INPUT] Si
[INPUT] 0    0    [10   /1   ]  9.998274          0.002894
                                5.517644          -0.014523
                                3.044965          0.077634
                                1.680393          -0.224022
                                0.927341          -0.14908
                                0.511762          0.085944
                                0.282421          0.355394
                                0.155857          0.445219
                                0.086011          0.26723
                                0.047466          0.060787
[INPUT] 0    0    [1    /1   ]  0.488504             1
[INPUT] 0    0    [1    /1   ]  0.199457             1
[INPUT] 0    0    [1    /1   ]  0.081439             1
[INPUT] 1    0    [10   /1   ]  5.027868          -0.003242
                                2.867751          0.010649
                                1.635683          -0.049761
                                0.932947          -1.7e-05
                                0.532126          0.10606
                                0.303509          0.236202
                                0.173113          0.310665
                                0.098739          0.294696
                                0.056318          0.153898
                                0.032122          0.042337
[INPUT] 1    0    [1    /1   ]  1.22579              1
[INPUT] 1    0    [1    /1   ]  0.501364             1
[INPUT] 1    0    [1    /1   ]  0.205064             1
[INPUT] 2    0    [1    /1   ]  0.997003             1
[INPUT] 2    0    [1    /1   ]  0.365942             1
[INPUT] 2    0    [1    /1   ]  0.134316             1
[INPUT] 3    0    [1    /1   ]  0.549116             1
[INPUT] 3    0    [1    /1   ]  0.214998             1
[INPUT] 4    0    [1    /1   ]  0.459547             1

nuclear repulsion = 7.05027014122111
number of shells = 54
number of NR pGTOs = 238
number of NR cGTOs = 174
basis = ccecp-ccpvqz
ecp = ccecp
CPU time:         6.30


******** <class 'pyscf.df.df_jk.density_fit.<locals>.DFHF'> ********
method = DFHF-RKS-RHF
initial guess = minao
damping factor = 0
level_shift factor = 0
DIIS = <class 'pyscf.scf.diis.CDIIS'>
diis_start_cycle = 1
diis_space = 8
SCF conv_tol = 1e-09
SCF conv_tol_grad = None
SCF max_cycles = 200
direct_scf = True
direct_scf_tol = 1e-13
chkfile to save SCF result = pyscf.chk
max_memory 507439 MB (current use 106 MB)
XC library pyscf.dft.libxc version 5.1.7
    S. Lehtola, C. Steigemann, M. J. Oliveira, and M. A. Marques, SoftwareX 7, 1 (2018)
XC functionals = LDA_X,LDA_C_PZ
    P. A. M. Dirac, Math. Proc. Cambridge Philos. Soc. 26, 376 (1930)
    F. Bloch, Z. Phys. 57, 545 (1929)
    J. P. Perdew and A. Zunger, Phys. Rev. B 23, 5048 (1981)
radial grids: 
    Treutler-Ahlrichs [JCP 102, 346 (1995); DOI:10.1063/1.469408] (M4) radial grids
    
becke partition: Becke, JCP 88, 2547 (1988); DOI:10.1063/1.454033
pruning grids: <function nwchem_prune at 0x14c413a8b730>
grids dens level: 3
symmetrized grids: False
atomic radii adjust function: <function treutler_atomic_radii_adjust at 0x14c413a8b620>
small_rho_cutoff = 1e-07
Set gradient conv threshold to 3.16228e-05
atom Si rad-grids = 80, ang-grids = [ 50  50  50  50  50  50  50  50  50  50  50  50  50  50  50  50  50  50
  50  50  50  50  50  50  86  86  86  86  86  86  86  86  86  86  86  86
  86  86 350 350 350 350 350 350 350 350 350 434 434 434 434 434 434 434
 434 434 434 434 434 434 434 434 434 434 434 434 350 350 350 350 350 350
 350 350 350 350 350 350 350 350]
atom H rad-grids = 50, ang-grids = [ 50  50  50  50  50  50  50  50  50  50  50  50  50  50  86  86  86  86
 266 266 266 266 302 302 302 302 302 302 302 302 302 302 302 302 302 266
 266 266 266 266 266 266 266 266 266 266 266 266 266 266]
tot grids = 58796
Drop grids 4080
    CPU time for setting up grids     49.50 sec, wall time      0.43 sec
nelec by numeric integration = 7.99980573619229
    CPU time for vxc     37.72 sec, wall time      0.30 sec
Even tempered Gaussians are generated as DF auxbasis for  H Si
  ETB auxbasis for H  [[0, [32.28416, 1]], [0, [16.14208, 1]], [0, [8.07104, 1]], [0, [4.03552, 1]], [0, [2.01776, 1]], [0, [1.00888, 1]], [0, [0.50444, 1]], [0, [0.25222, 1]], [0, [0.12611, 1]], [1, [8.571507550502421, 1]], [1, [4.2857537752512105, 1]], [1, [2.1428768876256052, 1]], [1, [1.0714384438128026, 1]], [1, [0.5357192219064013, 1]], [1, [0.26785961095320066, 1]], [2, [4.551504, 1]], [2, [2.275752, 1]], [2, [1.137876, 1]], [2, [0.568938, 1]]]
  ETB auxbasis for Si  [[0, [12.151296, 1]], [0, [6.075648, 1]], [0, [3.037824, 1]], [0, [1.518912, 1]], [0, [0.759456, 1]], [0, [0.379728, 1]], [0, [0.189864, 1]], [0, [0.094932, 1]], [1, [9.996145562599215, 1]], [1, [4.998072781299608, 1]], [1, [2.499036390649804, 1]], [1, [1.249518195324902, 1]], [1, [0.624759097662451, 1]], [1, [0.3123795488312255, 1]], [1, [0.15618977441561274, 1]], [1, [0.07809488720780637, 1]], [2, [8.223232, 1]], [2, [4.111616, 1]], [2, [2.055808, 1]], [2, [1.027904, 1]], [2, [0.513952, 1]], [2, [0.256976, 1]], [2, [0.128488, 1]], [2, [0.064244, 1]], [3, [4.203829928647447, 1]], [3, [2.1019149643237234, 1]], [3, [1.0509574821618617, 1]], [3, [0.5254787410809308, 1]], [3, [0.2627393705404654, 1]], [3, [0.1313696852702327, 1]], [4, [2.149056, 1]], [4, [1.074528, 1]], [4, [0.537264, 1]], [4, [0.268632, 1]]]
num shells = 110, num cGTOs = 338
    CPU time for df-vj     32.76 sec, wall time      0.25 sec
E1 = -21.118490383277035  Ecoul = 10.658818131123247  Exc = -2.3577005885662583
init E= -5.76710269949894
cond(S) = 40002.182622745466
    CPU time for initialize scf    232.27 sec, wall time      2.08 sec
  HOMO = -0.366344388341262  LUMO = -0.0325183775812283
  mo_energy =
[-0.55820923 -0.36634439 -0.36634439 -0.36634439 -0.03251838 -0.03251838
 -0.03251838 -0.01630311  0.07749213  0.07749213  0.09287338  0.09287338
  0.09287338  0.15971961  0.21171081  0.21171081  0.21171081  0.26179806
  0.36045814  0.36045814  0.36045814  0.43251107  0.43251107  0.43251107
  0.56979763  0.56979763  0.56979763  0.61956445  0.61956445  0.62351236
  0.62351236  0.62351236  0.70611052  0.82846574  0.82846574  0.82846574
  0.84066768  0.84066768  0.86372607  0.86372607  0.86372607  0.88196013
  1.06628014  1.06628014  1.06628014  1.12916401  1.20937293  1.20937293
  1.20937293  1.37204391  1.37204391  1.37204391  1.6232987   1.6232987
  1.6232987   1.70229642  1.70229642  1.82517368  1.8508228   1.8508228
  1.8508228   1.95781978  1.99070124  1.99070124  1.99070124  2.1095023
  2.1095023   2.1095023   2.14827278  2.14827278  2.17102961  2.17102961
  2.17102961  2.28643491  2.28643491  2.28643491  2.33095428  2.38458904
  2.38458904  2.5247198   2.5247198   2.5247198   2.54728078  2.54728078
  2.54728078  2.63087158  2.63087158  2.63087158  2.85155054  2.85155054
  2.98340465  2.98340465  2.98340465  3.14515498  3.20240188  3.20240188
  3.29054415  3.29054415  3.29054415  3.40441072  3.40441072  3.40441072
  3.48763067  3.48763067  3.48763067  3.65783924  5.0192648   5.0192648
  5.0192648   5.74357058  5.74859021  5.74859021  5.74859021  5.81047514
  5.81047514  5.81047514  5.89421564  5.96876723  5.96876723  5.96876723
  5.99497837  6.09347293  6.09347293  6.11519604  6.11519604  6.11519604
  6.27683635  6.27683635  6.27683635  6.40144672  6.40144672  6.40144672
  6.59856415  6.59856415  6.62040318  6.62040318  6.62040318  6.69415453
  6.69887549  6.69887549  6.69887549  7.79051198  7.79051198  7.79051198
  7.84314358  7.84314358  7.97618062  7.97618062  7.97618062  8.08442256
  8.08442256  8.08442256  8.15373676  8.15373676  8.15373676  8.19322122
  8.19322122  8.46516745  8.46516745  8.46516745  8.5616745   8.56635368
  8.56635368  8.58559741  8.58559741  8.58559741  8.75288794  8.75288794
  8.75288794  8.79398432  9.32656842  9.32656842  9.32656842 11.19143865]
nelec by numeric integration = 8.000000158424701
    CPU time for vxc     32.22 sec, wall time      0.25 sec
    CPU time for df-vj      2.54 sec, wall time      0.02 sec
E1 = -22.047586595099936  Ecoul = 11.365324468860349  Exc = -2.5492113545589574
cycle= 1 E= -6.18120333957744  delta_E= -0.414  |g|= 0.137  |ddm|= 2.59
    CPU time for cycle= 1     73.66 sec, wall time      0.57 sec
  HOMO = -0.286514134275755  LUMO = 0.0206909009706383
  mo_energy =
[-0.46884839 -0.28651413 -0.28651413 -0.28651413  0.0206909   0.0206909
  0.0206909   0.02127633  0.12661018  0.12661018  0.12661018  0.131316
  0.131316    0.2128542   0.24755985  0.24755985  0.24755985  0.29710106
  0.40782734  0.40782734  0.40782734  0.47812921  0.47812921  0.47812921
  0.61987612  0.61987612  0.61987612  0.6762398   0.6762398   0.6762398
  0.68989749  0.68989749  0.75527727  0.86987823  0.86987823  0.86987823
  0.88719493  0.88719493  0.91265408  0.91265408  0.91265408  0.93058949
  1.12890446  1.12890446  1.12890446  1.1848728   1.26795673  1.26795673
  1.26795673  1.44358879  1.44358879  1.44358879  1.70407653  1.70407653
  1.70407653  1.76540628  1.76540628  1.89975795  1.93145244  1.93145244
  1.93145244  2.03585804  2.05090201  2.05090201  2.05090201  2.18230651
  2.18230651  2.18230651  2.2326029   2.2326029   2.23617357  2.23617357
  2.23617357  2.34242366  2.34242366  2.34242366  2.39715325  2.46175597
  2.46175597  2.58228842  2.58228842  2.58228842  2.61221213  2.61221213
  2.61221213  2.70099737  2.70099737  2.70099737  2.91084575  2.91084575
  3.05344943  3.05344943  3.05344943  3.21363119  3.2702183   3.2702183
  3.36325324  3.36325324  3.36325324  3.48671699  3.48671699  3.48671699
  3.56545133  3.56545133  3.56545133  3.74611824  5.12517387  5.12517387
  5.12517387  5.81100762  5.81722724  5.81722724  5.81722724  5.87860476
  5.87860476  5.87860476  5.96571095  6.04814475  6.04814475  6.04814475
  6.07942426  6.18130067  6.18130067  6.1889966   6.1889966   6.1889966
  6.3696618   6.3696618   6.3696618   6.48905912  6.48905912  6.48905912
  6.68058399  6.68058399  6.71283783  6.71283783  6.71283783  6.78122144
  6.79010756  6.79010756  6.79010756  7.87103371  7.87103371  7.87103371
  7.92150684  7.92150684  8.05554568  8.05554568  8.05554568  8.17121907
  8.17121907  8.17121907  8.23109567  8.23109567  8.23109567  8.27808162
  8.27808162  8.54674004  8.54674004  8.54674004  8.64676995  8.64676995
  8.65643182  8.67497614  8.67497614  8.67497614  8.83289006  8.83289006
  8.83289006  8.88888314  9.42964938  9.42964938  9.42964938 11.32219779]
nelec by numeric integration = 8.000000378931306
    CPU time for vxc     36.17 sec, wall time      0.29 sec
    CPU time for df-vj      2.05 sec, wall time      0.02 sec
E1 = -21.736516296347567  Ecoul = 10.958757271980888  Exc = -2.458157595616874
cycle= 2 E= -6.18564647876245  delta_E= -0.00444  |g|= 0.0923  |ddm|= 0.559
    CPU time for cycle= 2     92.47 sec, wall time      0.74 sec
  HOMO = -0.311673686386125  LUMO = 0.00331027946664811
  mo_energy =
[-4.99969701e-01 -3.11673686e-01 -3.11673686e-01 -3.11673686e-01
  3.31027947e-03  3.31027947e-03  3.31027947e-03  8.66206498e-03
  1.12772250e-01  1.12772250e-01  1.15016766e-01  1.15016766e-01
  1.15016766e-01  1.97866596e-01  2.34756920e-01  2.34756920e-01
  2.34756920e-01  2.84287880e-01  3.92243306e-01  3.92243306e-01
  3.92243306e-01  4.63106086e-01  4.63106086e-01  4.63106086e-01
  6.03473270e-01  6.03473270e-01  6.03473270e-01  6.56999576e-01
  6.56999576e-01  6.56999576e-01  6.64152785e-01  6.64152785e-01
  7.39039261e-01  8.55515856e-01  8.55515856e-01  8.55515856e-01
  8.71107558e-01  8.71107558e-01  8.96737311e-01  8.96737311e-01
  8.96737311e-01  9.14132810e-01  1.10564935e+00  1.10564935e+00
  1.10564935e+00  1.16753537e+00  1.24997788e+00  1.24997788e+00
  1.24997788e+00  1.41638994e+00  1.41638994e+00  1.41638994e+00
  1.67586102e+00  1.67586102e+00  1.67586102e+00  1.74362355e+00
  1.74362355e+00  1.87144326e+00  1.90314624e+00  1.90314624e+00
  1.90314624e+00  2.00865255e+00  2.03071306e+00  2.03071306e+00
  2.03071306e+00  2.15692528e+00  2.15692528e+00  2.15692528e+00
  2.20348539e+00  2.20348539e+00  2.21405901e+00  2.21405901e+00
  2.21405901e+00  2.32527764e+00  2.32527764e+00  2.32527764e+00
  2.37478692e+00  2.43411262e+00  2.43411262e+00  2.56383225e+00
  2.56383225e+00  2.56383225e+00  2.59135826e+00  2.59135826e+00
  2.59135826e+00  2.67624257e+00  2.67624257e+00  2.67624257e+00
  2.89144586e+00  2.89144586e+00  3.02894618e+00  3.02894618e+00
  3.02894618e+00  3.19097163e+00  3.24649054e+00  3.24649054e+00
  3.33879365e+00  3.33879365e+00  3.33879365e+00  3.45800434e+00
  3.45800434e+00  3.45800434e+00  3.53825584e+00  3.53825584e+00
  3.53825584e+00  3.71714037e+00  5.08819461e+00  5.08819461e+00
  5.08819461e+00  5.79166188e+00  5.79738207e+00  5.79738207e+00
  5.79738207e+00  5.85903025e+00  5.85903025e+00  5.85903025e+00
  5.94481637e+00  6.02444984e+00  6.02444984e+00  6.02444984e+00
  6.05547331e+00  6.15407837e+00  6.15407837e+00  6.16703952e+00
  6.16703952e+00  6.16703952e+00  6.33941394e+00  6.33941394e+00
  6.33941394e+00  6.46203542e+00  6.46203542e+00  6.46203542e+00
  6.65583844e+00  6.65583844e+00  6.68583915e+00  6.68583915e+00
  6.68583915e+00  6.75628502e+00  6.76268719e+00  6.76268719e+00
  6.76268719e+00  7.85031156e+00  7.85031156e+00  7.85031156e+00
  7.90196330e+00  7.90196330e+00  8.03538261e+00  8.03538261e+00
  8.03538261e+00  8.14941676e+00  8.14941676e+00  8.14941676e+00
  8.21167378e+00  8.21167378e+00  8.21167378e+00  8.25664364e+00
  8.25664364e+00  8.52499930e+00  8.52499930e+00  8.52499930e+00
  8.62545335e+00  8.62545335e+00  8.62893821e+00  8.65066539e+00
  8.65066539e+00  8.65066539e+00  8.81158447e+00  8.81158447e+00
  8.81158447e+00  8.86220085e+00  9.40082882e+00  9.40082882e+00
  9.40082882e+00  1.12746062e+01]
nelec by numeric integration = 8.000000323934993
    CPU time for vxc     47.96 sec, wall time      0.39 sec
    CPU time for df-vj      8.07 sec, wall time      0.06 sec
E1 = -21.8703514643367  Ecoul = 11.116462419148283  Exc = -2.485720754811453
cycle= 3 E= -6.18933965877876  delta_E= -0.00369  |g|= 0.00972  |ddm|= 0.196
    CPU time for cycle= 3    139.43 sec, wall time      1.11 sec
  HOMO = -0.313384954285119  LUMO = 0.00252801730734044
  mo_energy =
[-5.00989540e-01 -3.13384954e-01 -3.13384954e-01 -3.13384954e-01
  2.52801731e-03  2.52801731e-03  2.52801731e-03  7.82128191e-03
  1.12114945e-01  1.12114945e-01  1.14223200e-01  1.14223200e-01
  1.14223200e-01  1.96322129e-01  2.34205909e-01  2.34205909e-01
  2.34205909e-01  2.83674425e-01  3.91474471e-01  3.91474471e-01
  3.91474471e-01  4.61957916e-01  4.61957916e-01  4.61957916e-01
  6.02375935e-01  6.02375935e-01  6.02375935e-01  6.56451853e-01
  6.56451853e-01  6.56451853e-01  6.63791090e-01  6.63791090e-01
  7.38266820e-01  8.54870590e-01  8.54870590e-01  8.54870590e-01
  8.70074852e-01  8.70074852e-01  8.95704897e-01  8.95704897e-01
  8.95704897e-01  9.13019962e-01  1.10491966e+00  1.10491966e+00
  1.10491966e+00  1.16636857e+00  1.24825888e+00  1.24825888e+00
  1.24825888e+00  1.41623887e+00  1.41623887e+00  1.41623887e+00
  1.67471860e+00  1.67471860e+00  1.67471860e+00  1.74259796e+00
  1.74259796e+00  1.87110254e+00  1.90225532e+00  1.90225532e+00
  1.90225532e+00  2.00768929e+00  2.02960691e+00  2.02960691e+00
  2.02960691e+00  2.15597952e+00  2.15597952e+00  2.15597952e+00
  2.20232832e+00  2.20232832e+00  2.21299282e+00  2.21299282e+00
  2.21299282e+00  2.32367958e+00  2.32367958e+00  2.32367958e+00
  2.37380041e+00  2.43328773e+00  2.43328773e+00  2.56247972e+00
  2.56247972e+00  2.56247972e+00  2.58988570e+00  2.58988570e+00
  2.58988570e+00  2.67516484e+00  2.67516484e+00  2.67516484e+00
  2.89015394e+00  2.89015394e+00  3.02808838e+00  3.02808838e+00
  3.02808838e+00  3.18957908e+00  3.24553462e+00  3.24553462e+00
  3.33737981e+00  3.33737981e+00  3.33737981e+00  3.45703676e+00
  3.45703676e+00  3.45703676e+00  3.53714115e+00  3.53714115e+00
  3.53714115e+00  3.71550040e+00  5.08715868e+00  5.08715868e+00
  5.08715868e+00  5.78949949e+00  5.79522092e+00  5.79522092e+00
  5.79522092e+00  5.85685901e+00  5.85685901e+00  5.85685901e+00
  5.94266740e+00  6.02221450e+00  6.02221450e+00  6.02221450e+00
  6.05283188e+00  6.15191361e+00  6.15191361e+00  6.16493461e+00
  6.16493461e+00  6.16493461e+00  6.33756333e+00  6.33756333e+00
  6.33756333e+00  6.45989145e+00  6.45989145e+00  6.45989145e+00
  6.65368387e+00  6.65368387e+00  6.68321210e+00  6.68321210e+00
  6.68321210e+00  6.75359327e+00  6.76028538e+00  6.76028538e+00
  6.76028538e+00  7.84721314e+00  7.84721314e+00  7.84721314e+00
  7.89874010e+00  7.89874010e+00  8.03224252e+00  8.03224252e+00
  8.03224252e+00  8.14594658e+00  8.14594658e+00  8.14594658e+00
  8.20841458e+00  8.20841458e+00  8.20841458e+00  8.25327252e+00
  8.25327252e+00  8.52197886e+00  8.52197886e+00  8.52197886e+00
  8.62244531e+00  8.62244531e+00  8.62625533e+00  8.64763434e+00
  8.64763434e+00  8.64763434e+00  8.80855864e+00  8.80855864e+00
  8.80855864e+00  8.85920458e+00  9.39764693e+00  9.39764693e+00
  9.39764693e+00  1.12745674e+01]
nelec by numeric integration = 8.000000306265605
    CPU time for vxc     35.32 sec, wall time      0.28 sec
    CPU time for df-vj      7.90 sec, wall time      0.06 sec
E1 = -21.86821859999094  Ecoul = 11.116712433792989  Exc = -2.4881439186788006
cycle= 4 E= -6.18937994365564  delta_E= -4.03e-05  |g|= 0.000211  |ddm|= 0.0257
    CPU time for cycle= 4     68.09 sec, wall time      0.54 sec
  HOMO = -0.313298616762089  LUMO = 0.00259104135197186
  mo_energy =
[-5.00891091e-01 -3.13298617e-01 -3.13298617e-01 -3.13298617e-01
  2.59104135e-03  2.59104135e-03  2.59104135e-03  7.83941990e-03
  1.12180872e-01  1.12180872e-01  1.14239216e-01  1.14239216e-01
  1.14239216e-01  1.96389929e-01  2.34238488e-01  2.34238488e-01
  2.34238488e-01  2.83701687e-01  3.91535838e-01  3.91535838e-01
  3.91535838e-01  4.62000868e-01  4.62000868e-01  4.62000868e-01
  6.02421572e-01  6.02421572e-01  6.02421572e-01  6.56506083e-01
  6.56506083e-01  6.56506083e-01  6.63872826e-01  6.63872826e-01
  7.38326339e-01  8.54916840e-01  8.54916840e-01  8.54916840e-01
  8.70113928e-01  8.70113928e-01  8.95756207e-01  8.95756207e-01
  8.95756207e-01  9.13050573e-01  1.10496882e+00  1.10496882e+00
  1.10496882e+00  1.16644169e+00  1.24831815e+00  1.24831815e+00
  1.24831815e+00  1.41632071e+00  1.41632071e+00  1.41632071e+00
  1.67480253e+00  1.67480253e+00  1.67480253e+00  1.74267285e+00
  1.74267285e+00  1.87118316e+00  1.90234778e+00  1.90234778e+00
  1.90234778e+00  2.00777177e+00  2.02967837e+00  2.02967837e+00
  2.02967837e+00  2.15606097e+00  2.15606097e+00  2.15606097e+00
  2.20241600e+00  2.20241600e+00  2.21307067e+00  2.21307067e+00
  2.21307067e+00  2.32374663e+00  2.32374663e+00  2.32374663e+00
  2.37388385e+00  2.43337655e+00  2.43337655e+00  2.56255059e+00
  2.56255059e+00  2.56255059e+00  2.58995134e+00  2.58995134e+00
  2.58995134e+00  2.67524125e+00  2.67524125e+00  2.67524125e+00
  2.89022393e+00  2.89022393e+00  3.02816968e+00  3.02816968e+00
  3.02816968e+00  3.18964667e+00  3.24561080e+00  3.24561080e+00
  3.33744939e+00  3.33744939e+00  3.33744939e+00  3.45712957e+00
  3.45712957e+00  3.45712957e+00  3.53722275e+00  3.53722275e+00
  3.53722275e+00  3.71559107e+00  5.08726851e+00  5.08726851e+00
  5.08726851e+00  5.78958938e+00  5.79530981e+00  5.79530981e+00
  5.79530981e+00  5.85694830e+00  5.85694830e+00  5.85694830e+00
  5.94275674e+00  6.02230511e+00  6.02230511e+00  6.02230511e+00
  6.05292778e+00  6.15200544e+00  6.15200544e+00  6.16502526e+00
  6.16502526e+00  6.16502526e+00  6.33765882e+00  6.33765882e+00
  6.33765882e+00  6.45998522e+00  6.45998522e+00  6.45998522e+00
  6.65378002e+00  6.65378002e+00  6.68331045e+00  6.68331045e+00
  6.68331045e+00  6.75368637e+00  6.76038117e+00  6.76038117e+00
  6.76038117e+00  7.84731760e+00  7.84731760e+00  7.84731760e+00
  7.89884312e+00  7.89884312e+00  8.03234652e+00  8.03234652e+00
  8.03234652e+00  8.14605166e+00  8.14605166e+00  8.14605166e+00
  8.20851381e+00  8.20851381e+00  8.20851381e+00  8.25337570e+00
  8.25337570e+00  8.52207523e+00  8.52207523e+00  8.52207523e+00
  8.62254174e+00  8.62254174e+00  8.62635728e+00  8.64773626e+00
  8.64773626e+00  8.64773626e+00  8.80865198e+00  8.80865198e+00
  8.80865198e+00  8.85930326e+00  9.39775115e+00  9.39775115e+00
  9.39775115e+00  1.12746931e+01]
nelec by numeric integration = 8.00000030620096
    CPU time for vxc     33.29 sec, wall time      0.26 sec
    CPU time for df-vj      6.94 sec, wall time      0.05 sec
E1 = -21.86784434996501  Ecoul = 11.116236180038108  Exc = -2.4880419392516555
cycle= 5 E= -6.18937996795745  delta_E= -2.43e-08  |g|= 3.15e-05  |ddm|= 0.000713
    CPU time for cycle= 5    100.61 sec, wall time      0.81 sec
  HOMO = -0.313314068113277  LUMO = 0.0025801688621208
  mo_energy =
[-5.00907719e-01 -3.13314068e-01 -3.13314068e-01 -3.13314068e-01
  2.58016886e-03  2.58016886e-03  2.58016886e-03  7.82997162e-03
  1.12169603e-01  1.12169603e-01  1.14230436e-01  1.14230436e-01
  1.14230436e-01  1.96379476e-01  2.34230197e-01  2.34230197e-01
  2.34230197e-01  2.83693160e-01  3.91526324e-01  3.91526324e-01
  3.91526324e-01  4.61989714e-01  4.61989714e-01  4.61989714e-01
  6.02410611e-01  6.02410611e-01  6.02410611e-01  6.56495004e-01
  6.56495004e-01  6.56495004e-01  6.63859680e-01  6.63859680e-01
  7.38316380e-01  8.54907094e-01  8.54907094e-01  8.54907094e-01
  8.70102922e-01  8.70102922e-01  8.95745470e-01  8.95745470e-01
  8.95745470e-01  9.13039216e-01  1.10495550e+00  1.10495550e+00
  1.10495550e+00  1.16643057e+00  1.24830548e+00  1.24830548e+00
  1.24830548e+00  1.41630754e+00  1.41630754e+00  1.41630754e+00
  1.67478658e+00  1.67478658e+00  1.67478658e+00  1.74265940e+00
  1.74265940e+00  1.87116907e+00  1.90233240e+00  1.90233240e+00
  1.90233240e+00  2.00775688e+00  2.02966561e+00  2.02966561e+00
  2.02966561e+00  2.15604664e+00  2.15604664e+00  2.15604664e+00
  2.20240002e+00  2.20240002e+00  2.21305730e+00  2.21305730e+00
  2.21305730e+00  2.32373460e+00  2.32373460e+00  2.32373460e+00
  2.37387082e+00  2.43336229e+00  2.43336229e+00  2.56253845e+00
  2.56253845e+00  2.56253845e+00  2.58993827e+00  2.58993827e+00
  2.58993827e+00  2.67522748e+00  2.67522748e+00  2.67522748e+00
  2.89021134e+00  2.89021134e+00  3.02815586e+00  3.02815586e+00
  3.02815586e+00  3.18963321e+00  3.24559711e+00  3.24559711e+00
  3.33743507e+00  3.33743507e+00  3.33743507e+00  3.45711449e+00
  3.45711449e+00  3.45711449e+00  3.53720750e+00  3.53720750e+00
  3.53720750e+00  3.71557481e+00  5.08725084e+00  5.08725084e+00
  5.08725084e+00  5.78957550e+00  5.79529583e+00  5.79529583e+00
  5.79529583e+00  5.85693438e+00  5.85693438e+00  5.85693438e+00
  5.94274239e+00  6.02228971e+00  6.02228971e+00  6.02228971e+00
  6.05291170e+00  6.15198896e+00  6.15198896e+00  6.16501066e+00
  6.16501066e+00  6.16501066e+00  6.33764191e+00  6.33764191e+00
  6.33764191e+00  6.45996890e+00  6.45996890e+00  6.45996890e+00
  6.65376422e+00  6.65376422e+00  6.68329351e+00  6.68329351e+00
  6.68329351e+00  6.75367009e+00  6.76036422e+00  6.76036422e+00
  6.76036422e+00  7.84730210e+00  7.84730210e+00  7.84730210e+00
  7.89882795e+00  7.89882795e+00  8.03233122e+00  8.03233122e+00
  8.03233122e+00  8.14603507e+00  8.14603507e+00  8.14603507e+00
  8.20849879e+00  8.20849879e+00  8.20849879e+00  8.25335940e+00
  8.25335940e+00  8.52205982e+00  8.52205982e+00  8.52205982e+00
  8.62252646e+00  8.62252646e+00  8.62634049e+00  8.64771957e+00
  8.64771957e+00  8.64771957e+00  8.80863685e+00  8.80863685e+00
  8.80863685e+00  8.85928617e+00  9.39773269e+00  9.39773269e+00
  9.39773269e+00  1.12746742e+01]
nelec by numeric integration = 8.000000306142914
    CPU time for vxc     38.47 sec, wall time      0.31 sec
    CPU time for df-vj      6.93 sec, wall time      0.05 sec
E1 = -21.867888874022007  Ecoul = 11.116294189514107  Exc = -2.4880554251137013
cycle= 6 E= -6.1893799684005  delta_E= -4.43e-10  |g|= 2.65e-07  |ddm|= 9.85e-05
    CPU time for cycle= 6    111.82 sec, wall time      0.90 sec
  HOMO = -0.313314118830178  LUMO = 0.00258017453910714
  mo_energy =
[-5.00907741e-01 -3.13314119e-01 -3.13314119e-01 -3.13314119e-01
  2.58017454e-03  2.58017454e-03  2.58017454e-03  7.82993873e-03
  1.12169606e-01  1.12169606e-01  1.14230418e-01  1.14230418e-01
  1.14230418e-01  1.96379483e-01  2.34230203e-01  2.34230203e-01
  2.34230203e-01  2.83693152e-01  3.91526363e-01  3.91526363e-01
  3.91526363e-01  4.61989659e-01  4.61989659e-01  4.61989659e-01
  6.02410590e-01  6.02410590e-01  6.02410590e-01  6.56495001e-01
  6.56495001e-01  6.56495001e-01  6.63859721e-01  6.63859721e-01
  7.38316404e-01  8.54907087e-01  8.54907087e-01  8.54907087e-01
  8.70102883e-01  8.70102883e-01  8.95745450e-01  8.95745450e-01
  8.95745450e-01  9.13039161e-01  1.10495547e+00  1.10495547e+00
  1.10495547e+00  1.16643057e+00  1.24830542e+00  1.24830542e+00
  1.24830542e+00  1.41630757e+00  1.41630757e+00  1.41630757e+00
  1.67478654e+00  1.67478654e+00  1.67478654e+00  1.74265936e+00
  1.74265936e+00  1.87116909e+00  1.90233239e+00  1.90233239e+00
  1.90233239e+00  2.00775686e+00  2.02966558e+00  2.02966558e+00
  2.02966558e+00  2.15604662e+00  2.15604662e+00  2.15604662e+00
  2.20239999e+00  2.20239999e+00  2.21305727e+00  2.21305727e+00
  2.21305727e+00  2.32373455e+00  2.32373455e+00  2.32373455e+00
  2.37387080e+00  2.43336229e+00  2.43336229e+00  2.56253842e+00
  2.56253842e+00  2.56253842e+00  2.58993824e+00  2.58993824e+00
  2.58993824e+00  2.67522746e+00  2.67522746e+00  2.67522746e+00
  2.89021130e+00  2.89021130e+00  3.02815584e+00  3.02815584e+00
  3.02815584e+00  3.18963319e+00  3.24559708e+00  3.24559708e+00
  3.33743503e+00  3.33743503e+00  3.33743503e+00  3.45711448e+00
  3.45711448e+00  3.45711448e+00  3.53720747e+00  3.53720747e+00
  3.53720747e+00  3.71557477e+00  5.08725083e+00  5.08725083e+00
  5.08725083e+00  5.78957543e+00  5.79529576e+00  5.79529576e+00
  5.79529576e+00  5.85693431e+00  5.85693431e+00  5.85693431e+00
  5.94274232e+00  6.02228965e+00  6.02228965e+00  6.02228965e+00
  6.05291162e+00  6.15198891e+00  6.15198891e+00  6.16501060e+00
  6.16501060e+00  6.16501060e+00  6.33764187e+00  6.33764187e+00
  6.33764187e+00  6.45996884e+00  6.45996884e+00  6.45996884e+00
  6.65376416e+00  6.65376416e+00  6.68329344e+00  6.68329344e+00
  6.68329344e+00  6.75367001e+00  6.76036415e+00  6.76036415e+00
  6.76036415e+00  7.84730201e+00  7.84730201e+00  7.84730201e+00
  7.89882785e+00  7.89882785e+00  8.03233113e+00  8.03233113e+00
  8.03233113e+00  8.14603496e+00  8.14603496e+00  8.14603496e+00
  8.20849870e+00  8.20849870e+00  8.20849870e+00  8.25335929e+00
  8.25335929e+00  8.52205974e+00  8.52205974e+00  8.52205974e+00
  8.62252639e+00  8.62252639e+00  8.62634042e+00  8.64771948e+00
  8.64771948e+00  8.64771948e+00  8.80863677e+00  8.80863677e+00
  8.80863677e+00  8.85928609e+00  9.39773260e+00  9.39773260e+00
  9.39773260e+00  1.12746742e+01]
nelec by numeric integration = 8.000000306141333
    CPU time for vxc     40.71 sec, wall time      0.32 sec
    CPU time for df-vj      7.87 sec, wall time      0.06 sec
E1 = -21.867888737490123  Ecoul = 11.116294133541446  Exc = -2.4880555056732967
Extra cycle  E= -6.18937996840087  delta_E= -3.71e-13  |g|= 1.5e-07  |ddm|= 2.34e-06
    CPU time for scf_cycle    914.17 sec, wall time      7.51 sec
    CPU time for SCF    914.62 sec, wall time      7.52 sec
converged SCF energy = -6.18937996840087
