#INFO: **** input file is /home/nkousuke/lustre/toBeSync/turboRVB/05turbo-genius-development/turbogenius_paper/04data/sanity_checks/03pyscf_HF_turbo_VMC_via_trexio/00open_boundary/results/SiH2_singlet/pyscf-HF-workflow/run.py ****

from pyscf_wrapper import Pyscf_wrapper

# input variables
pyscf_chkfile="pyscf.chk"
structure_file="SiH2_singlet.xyz"

# input variables
omp_num_threads=128
charge=0
spin=0
basis="ccecp-ccpvqz"
ecp="ccecp"
scf_method="HF"
dft_xc="NA"
solver_newton=False
MP2_flag=False
CCSD_flag=False
pyscf_output="out.pyscf"
twist_average=False
exp_to_discard=0.0
kpt=[0.0, 0.0, 0.0]
kpt_grid=[1, 1, 1]
smearing_method="fermi"
smearing_sigma=0.0

pyscf_calc=Pyscf_wrapper(
                        structure_file=structure_file,
                        chkfile=pyscf_chkfile,
                        )

pyscf_calc.run_pyscf(
                  omp_num_threads=omp_num_threads,
                  charge=charge,
                  spin=spin,
                  basis=basis,
                  ecp=ecp,
                  scf_method=scf_method,
                  dft_xc=dft_xc,
                  solver_newton=solver_newton,
                  MP2_flag=MP2_flag,
                  CCSD_flag=CCSD_flag,
                  pyscf_output=pyscf_output,
                  twist_average=twist_average,
                  exp_to_discard=exp_to_discard,
                  kpt=kpt,
                  kpt_grid=kpt_grid,
                  smearing_method=smearing_method,
                  smearing_sigma=smearing_sigma
                  )
                #INFO: ******************** input file end ********************


System: uname_result(system='Linux', node='spcc-200', release='5.4.0-66-generic', version='#74-Ubuntu SMP Wed Jan 27 22:54:38 UTC 2021', machine='x86_64', processor='x86_64')  Threads 128
Python 3.7.3 (default, Mar 27 2019, 22:11:17) 
[GCC 7.3.0]
numpy 1.20.1  scipy 1.7.3
Date: Mon Dec 19 18:03:19 2022
PySCF version 2.0.1
PySCF path  /home/nkousuke/application/anaconda3/lib/python3.7/site-packages/pyscf

[CONFIG] conf_file /home/nkousuke/.pyscf_conf.py
[INPUT] verbose = 5
[INPUT] max_memory = 507537.58984375 
[INPUT] num. atoms = 3
[INPUT] num. electrons = 6
[INPUT] charge = 0
[INPUT] spin (= nelec alpha-beta = 2S) = 0
[INPUT] symmetry False subgroup None
[INPUT] Mole.unit = A
[INPUT]  1 Si     0.000000000000   0.000000000000   0.130965000000 AA    0.000000000000   0.000000000000   0.247487981904 Bohr
[INPUT]  2 H      0.000000000000   1.094746000000  -0.916757000000 AA    0.000000000000   2.068770115963  -1.732419652778 Bohr
[INPUT]  3 H      0.000000000000  -1.094746000000  -0.916757000000 AA    0.000000000000  -2.068770115963  -1.732419652778 Bohr
[INPUT] ---------------- BASIS SET ---------------- 
[INPUT] l, kappa, [nprim/nctr], expnt,             c_1 c_2 ...
[INPUT] H
[INPUT] 0    0    [8    /1   ]  23.843185         0.0041149
                                10.212443         0.0104644
                                4.374164          0.0280111
                                1.873529          0.0758862
                                0.802465          0.1821062
                                0.343709          0.3485214
                                0.147217          0.3782313
                                0.063055          0.1164241
[INPUT] 0    0    [1    /1   ]  0.081856             1
[INPUT] 0    0    [1    /1   ]  0.233254             1
[INPUT] 0    0    [1    /1   ]  0.664673             1
[INPUT] 1    0    [1    /1   ]  0.284469             1
[INPUT] 1    0    [1    /1   ]  0.847159             1
[INPUT] 1    0    [1    /1   ]  2.522868             1
[INPUT] 2    0    [1    /1   ]  0.665279             1
[INPUT] 2    0    [1    /1   ]  2.048739             1
[INPUT] 3    0    [1    /1   ]  1.42146              1
[INPUT] Si
[INPUT] 0    0    [10   /1   ]  9.998274          0.002894
                                5.517644          -0.014523
                                3.044965          0.077634
                                1.680393          -0.224022
                                0.927341          -0.14908
                                0.511762          0.085944
                                0.282421          0.355394
                                0.155857          0.445219
                                0.086011          0.26723
                                0.047466          0.060787
[INPUT] 0    0    [1    /1   ]  0.488504             1
[INPUT] 0    0    [1    /1   ]  0.199457             1
[INPUT] 0    0    [1    /1   ]  0.081439             1
[INPUT] 1    0    [10   /1   ]  5.027868          -0.003242
                                2.867751          0.010649
                                1.635683          -0.049761
                                0.932947          -1.7e-05
                                0.532126          0.10606
                                0.303509          0.236202
                                0.173113          0.310665
                                0.098739          0.294696
                                0.056318          0.153898
                                0.032122          0.042337
[INPUT] 1    0    [1    /1   ]  1.22579              1
[INPUT] 1    0    [1    /1   ]  0.501364             1
[INPUT] 1    0    [1    /1   ]  0.205064             1
[INPUT] 2    0    [1    /1   ]  0.997003             1
[INPUT] 2    0    [1    /1   ]  0.365942             1
[INPUT] 2    0    [1    /1   ]  0.134316             1
[INPUT] 3    0    [1    /1   ]  0.549116             1
[INPUT] 3    0    [1    /1   ]  0.214998             1
[INPUT] 4    0    [1    /1   ]  0.459547             1

nuclear repulsion = 3.0354372447663
number of shells = 34
number of NR pGTOs = 164
number of NR cGTOs = 114
basis = ccecp-ccpvqz
ecp = ccecp
CPU time:         6.05


******** <class 'pyscf.scf.hf.RHF'> ********
method = RHF
initial guess = minao
damping factor = 0
level_shift factor = 0
DIIS = <class 'pyscf.scf.diis.CDIIS'>
diis_start_cycle = 1
diis_space = 8
SCF conv_tol = 1e-09
SCF conv_tol_grad = None
SCF max_cycles = 200
direct_scf = True
direct_scf_tol = 1e-13
chkfile to save SCF result = pyscf.chk
max_memory 507537 MB (current use 106 MB)
Set gradient conv threshold to 3.16228e-05
E1 = -12.452658158560375  E_coul = 4.974229529940583
init E= -4.44299138385349
cond(S) = 17194.583828249375
    CPU time for initialize scf    134.28 sec, wall time      1.24 sec
  HOMO = -0.227014950351964  LUMO = -0.0905449897242098
  mo_energy =
[-0.76455627 -0.37428203 -0.22701495 -0.09054499  0.0972189   0.11376677
  0.21593504  0.22148914  0.27395423  0.29012969  0.29046792  0.29189505
  0.30579487  0.33694542  0.38996412  0.47532936  0.52186026  0.69379316
  0.71711969  0.72643431  0.73465443  0.78938053  0.83087927  0.86716416
  0.88562157  0.89130642  0.91775961  0.93278797  0.93398605  0.9983681
  1.0261338   1.06908088  1.13117923  1.21691524  1.33256293  1.3361132
  1.38524414  1.41871228  1.44949689  1.65085124  1.88313143  1.98215112
  1.99021118  2.03772056  2.04471229  2.05607892  2.10840619  2.13142654
  2.20602383  2.27706144  2.27895507  2.31961509  2.32976526  2.396226
  2.39943832  2.41804807  2.48679449  2.55093337  2.58444628  2.58910683
  2.60394548  2.66624581  2.71162711  2.72053847  2.75761714  2.79642564
  2.81078664  2.84454504  2.85243137  2.87380597  3.44730812  3.47041451
  3.49107009  3.51803957  3.54772325  3.54795621  3.80148127  3.84076065
  5.12741659  5.3083232   5.38105708  6.13807693  6.15150251  6.15786309
  6.19668505  6.27933135  6.36663973  6.45065991  6.5276944   6.53422531
  6.53464213  6.71746485  6.73224783  6.74716944  6.77037215  7.00182462
  7.00491578  8.21215643  8.28698386  8.29041723  8.34127408  8.47785109
  8.4918953   8.52347886  8.55928863  8.79118416  8.79555618  8.82691505
  8.96044495  9.0231835   9.07934756  9.24083699  9.75814708 10.68602792]
E1 = -12.745531436098393  E_coul = 4.8674879007221925
cycle= 1 E= -4.8426062906099  delta_E= -0.4  |g|= 0.13  |ddm|= 2.03
    CPU time for cycle= 1     32.82 sec, wall time      0.30 sec
  HOMO = -0.347984846537419  LUMO = -0.00915528220694171
  mo_energy =
[-6.93851236e-01 -4.67337053e-01 -3.47984847e-01 -9.15528221e-03
  1.22575921e-01  1.31236770e-01  2.21820882e-01  2.24453159e-01
  2.82834150e-01  2.86528034e-01  2.88010576e-01  2.91466236e-01
  3.03022555e-01  3.47583157e-01  3.99295763e-01  4.99612722e-01
  5.37219282e-01  7.00126391e-01  7.21361654e-01  7.27373418e-01
  7.43911298e-01  7.90913769e-01  8.45215440e-01  8.62380982e-01
  8.82356347e-01  8.85822961e-01  9.21834805e-01  9.24012734e-01
  9.29903995e-01  1.01647344e+00  1.02348473e+00  1.06911636e+00
  1.14998586e+00  1.23209115e+00  1.34802515e+00  1.36451882e+00
  1.36735066e+00  1.43087883e+00  1.48094735e+00  1.65934498e+00
  1.86939423e+00  2.00151574e+00  2.00169805e+00  2.06051158e+00
  2.06769908e+00  2.07129326e+00  2.10583459e+00  2.15113717e+00
  2.22562477e+00  2.27595354e+00  2.27676196e+00  2.31799658e+00
  2.32408524e+00  2.38616649e+00  2.40238809e+00  2.42783414e+00
  2.47983829e+00  2.56375714e+00  2.58590702e+00  2.59189424e+00
  2.62164632e+00  2.65803299e+00  2.73897902e+00  2.75072499e+00
  2.78971546e+00  2.82195807e+00  2.83884266e+00  2.86469322e+00
  2.87656464e+00  2.90915874e+00  3.47895790e+00  3.48185081e+00
  3.52066364e+00  3.54806085e+00  3.55906279e+00  3.58183208e+00
  3.82833448e+00  3.87187879e+00  5.10131618e+00  5.32716424e+00
  5.39938934e+00  6.19679292e+00  6.21033859e+00  6.21651285e+00
  6.25461044e+00  6.33955309e+00  6.42534257e+00  6.50733915e+00
  6.58634053e+00  6.59333011e+00  6.59833464e+00  6.77524503e+00
  6.79607729e+00  6.80739787e+00  6.83449570e+00  7.06893084e+00
  7.07050119e+00  8.28313884e+00  8.35976798e+00  8.36025541e+00
  8.41091915e+00  8.54810685e+00  8.56170664e+00  8.59559270e+00
  8.63265715e+00  8.85734622e+00  8.86679866e+00  8.89297856e+00
  9.02745893e+00  9.08773130e+00  9.14522517e+00  9.30327907e+00
  9.83276782e+00  1.06938179e+01]
E1 = -12.82448021838077  E_coul = 4.937065614896366
cycle= 2 E= -4.8519773587181  delta_E= -0.00937  |g|= 0.0329  |ddm|= 0.341
    CPU time for cycle= 2     65.90 sec, wall time      0.53 sec
  HOMO = -0.335122390113679  LUMO = 0.00651913226324057
  mo_energy =
[-6.75845029e-01 -4.58318945e-01 -3.35122390e-01  6.51913226e-03
  1.33428924e-01  1.37447705e-01  2.25543057e-01  2.27710935e-01
  2.94626234e-01  2.96068451e-01  2.99354879e-01  3.02451745e-01
  3.15803665e-01  3.55818856e-01  4.07375489e-01  5.10056289e-01
  5.46682497e-01  7.07840597e-01  7.30267274e-01  7.35415492e-01
  7.53463126e-01  8.02922877e-01  8.55136022e-01  8.76020750e-01
  8.94752509e-01  8.96240935e-01  9.41903746e-01  9.42242860e-01
  9.48606849e-01  1.02362875e+00  1.03526658e+00  1.07854114e+00
  1.15954582e+00  1.24531803e+00  1.36372723e+00  1.37872503e+00
  1.38716241e+00  1.45110127e+00  1.49122717e+00  1.67884077e+00
  1.89038065e+00  2.01689417e+00  2.01786559e+00  2.07837997e+00
  2.08890767e+00  2.09175131e+00  2.12726538e+00  2.17324335e+00
  2.24077993e+00  2.29961033e+00  2.30292216e+00  2.34054598e+00
  2.34542983e+00  2.40785396e+00  2.42348273e+00  2.44746649e+00
  2.49845205e+00  2.58222147e+00  2.60496629e+00  2.61069804e+00
  2.65087284e+00  2.68367646e+00  2.75355833e+00  2.75928284e+00
  2.79564540e+00  2.83112447e+00  2.85223372e+00  2.88422271e+00
  2.89051049e+00  2.91919371e+00  3.49230939e+00  3.49785258e+00
  3.53843766e+00  3.56327326e+00  3.57606937e+00  3.59905137e+00
  3.84867561e+00  3.89344035e+00  5.13670604e+00  5.35869317e+00
  5.42879740e+00  6.20714813e+00  6.22056251e+00  6.22643187e+00
  6.26464046e+00  6.35306634e+00  6.43817241e+00  6.52463277e+00
  6.60536746e+00  6.60738885e+00  6.61316865e+00  6.79546141e+00
  6.81503153e+00  6.82711504e+00  6.85350622e+00  7.08611707e+00
  7.08672109e+00  8.29285423e+00  8.36924790e+00  8.36972861e+00
  8.41979710e+00  8.55732480e+00  8.57049250e+00  8.60193579e+00
  8.64232294e+00  8.86863889e+00  8.87655856e+00  8.90428049e+00
  9.04125946e+00  9.09585373e+00  9.15422548e+00  9.32556867e+00
  9.85176357e+00  1.07286921e+01]
E1 = -12.82519865249862  E_coul = 4.936986015723443
cycle= 3 E= -4.85277539200888  delta_E= -0.000798  |g|= 0.00713  |ddm|= 0.111
    CPU time for cycle= 3     80.95 sec, wall time      0.64 sec
  HOMO = -0.337457897262586  LUMO = 0.00461592072880117
  mo_energy =
[-6.77277482e-01 -4.60504819e-01 -3.37457897e-01  4.61592073e-03
  1.32896238e-01  1.37423565e-01  2.25165079e-01  2.26765910e-01
  2.93624268e-01  2.95412224e-01  2.98057788e-01  3.01149090e-01
  3.14207853e-01  3.55039656e-01  4.06707098e-01  5.09200468e-01
  5.46004564e-01  7.07151718e-01  7.29332799e-01  7.34592159e-01
  7.52775795e-01  8.01820810e-01  8.53719149e-01  8.73887105e-01
  8.93334480e-01  8.95039947e-01  9.38764036e-01  9.39734880e-01
  9.46212717e-01  1.02305332e+00  1.03362917e+00  1.07741340e+00
  1.15855022e+00  1.24350666e+00  1.36136702e+00  1.37811388e+00
  1.38337212e+00  1.44869977e+00  1.49093088e+00  1.67573929e+00
  1.88683676e+00  2.01535039e+00  2.01629891e+00  2.07670342e+00
  2.08648245e+00  2.08964947e+00  2.12438610e+00  2.17056178e+00
  2.23921267e+00  2.29632647e+00  2.29898325e+00  2.33753227e+00
  2.34200024e+00  2.40460280e+00  2.42006413e+00  2.44537076e+00
  2.49583585e+00  2.58013524e+00  2.60371663e+00  2.60695934e+00
  2.64649921e+00  2.67885204e+00  2.75189528e+00  2.75913462e+00
  2.79609723e+00  2.83100828e+00  2.85102024e+00  2.88116316e+00
  2.88936025e+00  2.91837122e+00  3.49109055e+00  3.49600932e+00
  3.53640308e+00  3.56167629e+00  3.57407144e+00  3.59747669e+00
  3.84628097e+00  3.89108721e+00  5.12957942e+00  5.35402245e+00
  5.42424208e+00  6.20823270e+00  6.22166496e+00  6.22756949e+00
  6.26574277e+00  6.35359316e+00  6.43886831e+00  6.52479243e+00
  6.60516759e+00  6.60790042e+00  6.61364514e+00  6.79527599e+00
  6.81501499e+00  6.82715166e+00  6.85333485e+00  7.08690850e+00
  7.08693600e+00  8.29502363e+00  8.37137212e+00  8.37194033e+00
  8.42198760e+00  8.55993327e+00  8.57306832e+00  8.60449997e+00
  8.64473881e+00  8.87043644e+00  8.87834109e+00  8.90606482e+00
  9.04247652e+00  9.09762455e+00  9.15605441e+00  9.32515686e+00
  9.85277551e+00  1.07229336e+01]
E1 = -12.825888082991245  E_coul = 4.937624080133715
cycle= 4 E= -4.85282675809123  delta_E= -5.14e-05  |g|= 0.0013  |ddm|= 0.0296
    CPU time for cycle= 4     69.40 sec, wall time      0.54 sec
  HOMO = -0.337393083282604  LUMO = 0.00455785477585185
  mo_energy =
[-6.77322601e-01 -4.60632874e-01 -3.37393083e-01  4.55785478e-03
  1.32967758e-01  1.37372954e-01  2.25045807e-01  2.26637678e-01
  2.93633233e-01  2.95561073e-01  2.98025241e-01  3.01163197e-01
  3.14210993e-01  3.55083896e-01  4.06660572e-01  5.09077407e-01
  5.46048108e-01  7.07066174e-01  7.29263541e-01  7.34445591e-01
  7.52816653e-01  8.01838704e-01  8.53673184e-01  8.73787409e-01
  8.93391505e-01  8.94992150e-01  9.38708473e-01  9.39765395e-01
  9.46250225e-01  1.02306080e+00  1.03354059e+00  1.07736431e+00
  1.15848371e+00  1.24335830e+00  1.36122811e+00  1.37802375e+00
  1.38332205e+00  1.44890043e+00  1.49082239e+00  1.67576337e+00
  1.88673898e+00  2.01518538e+00  2.01623084e+00  2.07667375e+00
  2.08639343e+00  2.08953593e+00  2.12428970e+00  2.17053164e+00
  2.23906587e+00  2.29632647e+00  2.29902846e+00  2.33756110e+00
  2.34191765e+00  2.40459341e+00  2.42000773e+00  2.44546496e+00
  2.49577250e+00  2.58009456e+00  2.60362978e+00  2.60692994e+00
  2.64652013e+00  2.67869110e+00  2.75184244e+00  2.75902767e+00
  2.79598782e+00  2.83091665e+00  2.85099103e+00  2.88106910e+00
  2.88930705e+00  2.91827346e+00  3.49100826e+00  3.49592247e+00
  3.53633284e+00  3.56158331e+00  3.57397388e+00  3.59745694e+00
  3.84621213e+00  3.89108882e+00  5.12952369e+00  5.35412051e+00
  5.42419367e+00  6.20814230e+00  6.22156406e+00  6.22745766e+00
  6.26564244e+00  6.35351590e+00  6.43877564e+00  6.52475996e+00
  6.60514969e+00  6.60783354e+00  6.61359529e+00  6.79524514e+00
  6.81504355e+00  6.82712700e+00  6.85328001e+00  7.08691445e+00
  7.08694923e+00  8.29502013e+00  8.37135878e+00  8.37194497e+00
  8.42197790e+00  8.55998979e+00  8.57311691e+00  8.60452224e+00
  8.64478405e+00  8.87045722e+00  8.87834056e+00  8.90608740e+00
  9.04251288e+00  9.09763933e+00  9.15608198e+00  9.32521634e+00
  9.85286072e+00  1.07229329e+01]
E1 = -12.825759459319759  E_coul = 4.937493322025499
cycle= 5 E= -4.85282889252796  delta_E= -2.13e-06  |g|= 0.000149  |ddm|= 0.00869
    CPU time for cycle= 5     27.65 sec, wall time      0.22 sec
  HOMO = -0.337434835750082  LUMO = 0.00454245948022287
  mo_energy =
[-6.77327868e-01 -4.60619660e-01 -3.37434836e-01  4.54245948e-03
  1.32954336e-01  1.37375173e-01  2.25054000e-01  2.26648324e-01
  2.93629959e-01  2.95556571e-01  2.98020271e-01  3.01159515e-01
  3.14200917e-01  3.55069855e-01  4.06657808e-01  5.09087935e-01
  5.46045113e-01  7.07074669e-01  7.29272489e-01  7.34449969e-01
  7.52824336e-01  8.01833466e-01  8.53663198e-01  8.73788756e-01
  8.93370007e-01  8.94982284e-01  9.38676030e-01  9.39740905e-01
  9.46221381e-01  1.02304384e+00  1.03354969e+00  1.07736358e+00
  1.15849364e+00  1.24337122e+00  1.36123425e+00  1.37803759e+00
  1.38329327e+00  1.44884587e+00  1.49085654e+00  1.67570156e+00
  1.88673342e+00  2.01520606e+00  2.01624503e+00  2.07668464e+00
  2.08639779e+00  2.08955498e+00  2.12431074e+00  2.17052266e+00
  2.23908912e+00  2.29630606e+00  2.29897836e+00  2.33751335e+00
  2.34186861e+00  2.40453827e+00  2.41995913e+00  2.44541104e+00
  2.49575632e+00  2.58007279e+00  2.60364036e+00  2.60692983e+00
  2.64650173e+00  2.67865571e+00  2.75185903e+00  2.75905397e+00
  2.79603292e+00  2.83094650e+00  2.85097474e+00  2.88106028e+00
  2.88931682e+00  2.91829521e+00  3.49102847e+00  3.49593022e+00
  3.53631569e+00  3.56160940e+00  3.57398806e+00  3.59746957e+00
  3.84621385e+00  3.89108732e+00  5.12946611e+00  5.35408589e+00
  5.42415981e+00  6.20821561e+00  6.22163354e+00  6.22752153e+00
  6.26570846e+00  6.35358274e+00  6.43883394e+00  6.52482323e+00
  6.60521226e+00  6.60790748e+00  6.61365843e+00  6.79531194e+00
  6.81511056e+00  6.82720124e+00  6.85332903e+00  7.08698109e+00
  7.08702504e+00  8.29510674e+00  8.37144990e+00  8.37202725e+00
  8.42206417e+00  8.56008303e+00  8.57321259e+00  8.60461275e+00
  8.64486447e+00  8.87054330e+00  8.87842206e+00  8.90617482e+00
  9.04257997e+00  9.09772038e+00  9.15616782e+00  9.32527471e+00
  9.85294502e+00  1.07229079e+01]
E1 = -12.825757726992466  E_coul = 4.937491567812483
cycle= 6 E= -4.85282891441368  delta_E= -2.19e-08  |g|= 1.42e-05  |ddm|= 0.000917
    CPU time for cycle= 6     83.41 sec, wall time      0.67 sec
  HOMO = -0.337432186843016  LUMO = 0.0045425859589367
  mo_energy =
[-6.77332681e-01 -4.60622867e-01 -3.37432187e-01  4.54258596e-03
  1.32954390e-01  1.37372325e-01  2.25051996e-01  2.26646232e-01
  2.93628750e-01  2.95556851e-01  2.98019424e-01  3.01158094e-01
  3.14199941e-01  3.55070009e-01  4.06656410e-01  5.09083527e-01
  5.46044012e-01  7.07071381e-01  7.29270494e-01  7.34446953e-01
  7.52821880e-01  8.01832675e-01  8.53660906e-01  8.73786456e-01
  8.93370222e-01  8.94981816e-01  9.38676134e-01  9.39740274e-01
  9.46220633e-01  1.02304341e+00  1.03354668e+00  1.07736214e+00
  1.15849017e+00  1.24336619e+00  1.36122979e+00  1.37803274e+00
  1.38329297e+00  1.44884802e+00  1.49085007e+00  1.67570337e+00
  1.88673069e+00  2.01520018e+00  2.01624058e+00  2.07668029e+00
  2.08639347e+00  2.08954773e+00  2.12430571e+00  2.17051881e+00
  2.23908273e+00  2.29630436e+00  2.29897879e+00  2.33751409e+00
  2.34186879e+00  2.40453994e+00  2.41996024e+00  2.44541120e+00
  2.49575472e+00  2.58007097e+00  2.60363664e+00  2.60692548e+00
  2.64649742e+00  2.67865360e+00  2.75185317e+00  2.75904644e+00
  2.79602536e+00  2.83094115e+00  2.85097192e+00  2.88105580e+00
  2.88931106e+00  2.91828859e+00  3.49102218e+00  3.49592611e+00
  3.53631227e+00  3.56160224e+00  3.57398342e+00  3.59746316e+00
  3.84620813e+00  3.89108179e+00  5.12946469e+00  5.35408160e+00
  5.42415486e+00  6.20820363e+00  6.22162177e+00  6.22751027e+00
  6.26569701e+00  6.35357098e+00  6.43882333e+00  6.52481261e+00
  6.60520080e+00  6.60789536e+00  6.61364593e+00  6.79530094e+00
  6.81509803e+00  6.82718958e+00  6.85331793e+00  7.08696802e+00
  7.08701179e+00  8.29509266e+00  8.37143448e+00  8.37201389e+00
  8.42204999e+00  8.56006891e+00  8.57319795e+00  8.60459735e+00
  8.64485086e+00  8.87053015e+00  8.87840783e+00  8.90616155e+00
  9.04256784e+00  9.09770636e+00  9.15615414e+00  9.32526212e+00
  9.85293051e+00  1.07229023e+01]
E1 = -12.82575742692687  E_coul = 4.937491267582712
cycle= 7 E= -4.85282891457786  delta_E= -1.64e-10  |g|= 2.73e-06  |ddm|= 9.95e-05
    CPU time for cycle= 7     53.29 sec, wall time      0.42 sec
  HOMO = -0.337432031518666  LUMO = 0.00454272740768932
  mo_energy =
[-6.77332648e-01 -4.60622766e-01 -3.37432032e-01  4.54272741e-03
  1.32954518e-01  1.37372366e-01  2.25052094e-01  2.26646369e-01
  2.93628817e-01  2.95556851e-01  2.98019361e-01  3.01158133e-01
  3.14199843e-01  3.55070104e-01  4.06656470e-01  5.09083654e-01
  5.46044104e-01  7.07071451e-01  7.29270495e-01  7.34447010e-01
  7.52822021e-01  8.01832705e-01  8.53661183e-01  8.73786522e-01
  8.93370277e-01  8.94981775e-01  9.38676138e-01  9.39740351e-01
  9.46220883e-01  1.02304359e+00  1.03354673e+00  1.07736220e+00
  1.15849032e+00  1.24336632e+00  1.36122996e+00  1.37803294e+00
  1.38329297e+00  1.44884846e+00  1.49085025e+00  1.67570367e+00
  1.88673070e+00  2.01520029e+00  2.01624070e+00  2.07668045e+00
  2.08639362e+00  2.08954793e+00  2.12430575e+00  2.17051906e+00
  2.23908285e+00  2.29630457e+00  2.29897907e+00  2.33751430e+00
  2.34186894e+00  2.40454007e+00  2.41996034e+00  2.44541173e+00
  2.49575481e+00  2.58007122e+00  2.60363681e+00  2.60692568e+00
  2.64649777e+00  2.67865373e+00  2.75185349e+00  2.75904674e+00
  2.79602568e+00  2.83094138e+00  2.85097227e+00  2.88105606e+00
  2.88931142e+00  2.91828891e+00  3.49102250e+00  3.49592633e+00
  3.53631257e+00  3.56160254e+00  3.57398362e+00  3.59746353e+00
  3.84620843e+00  3.89108217e+00  5.12946495e+00  5.35408214e+00
  5.42415529e+00  6.20820395e+00  6.22162209e+00  6.22751057e+00
  6.26569733e+00  6.35357128e+00  6.43882363e+00  6.52481294e+00
  6.60520115e+00  6.60789567e+00  6.61364625e+00  6.79530124e+00
  6.81509843e+00  6.82718989e+00  6.85331825e+00  7.08696838e+00
  7.08701221e+00  8.29509308e+00  8.37143493e+00  8.37201430e+00
  8.42205042e+00  8.56006939e+00  8.57319844e+00  8.60459782e+00
  8.64485128e+00  8.87053057e+00  8.87840826e+00  8.90616198e+00
  9.04256823e+00  9.09770684e+00  9.15615460e+00  9.32526256e+00
  9.85293095e+00  1.07229027e+01]
E1 = -12.825757421630003  E_coul = 4.937491262278235
Extra cycle  E= -4.85282891458547  delta_E= -7.61e-12  |g|= 9.99e-07  |ddm|= 1.66e-05
    CPU time for scf_cycle    613.93 sec, wall time      5.08 sec
    CPU time for SCF    613.96 sec, wall time      5.08 sec
converged SCF energy = -4.85282891458547
