#INFO: **** input file is /home/nkousuke/lustre/toBeSync/turboRVB/05turbo-genius-development/turbogenius_paper/04data/sanity_checks/03pyscf_HF_turbo_VMC_via_trexio/00open_boundary/results/Al/pyscf-HF-workflow/run.py ****

from pyscf_wrapper import Pyscf_wrapper

# input variables
pyscf_chkfile="pyscf.chk"
structure_file="Al.xyz"

# input variables
omp_num_threads=128
charge=0
spin=1
basis="ccecp-ccpvqz"
ecp="ccecp"
scf_method="HF"
dft_xc="NA"
solver_newton=False
MP2_flag=False
CCSD_flag=False
pyscf_output="out.pyscf"
twist_average=False
exp_to_discard=0.0
kpt=[0.0, 0.0, 0.0]
kpt_grid=[1, 1, 1]
smearing_method="fermi"
smearing_sigma=0.0

pyscf_calc=Pyscf_wrapper(
                        structure_file=structure_file,
                        chkfile=pyscf_chkfile,
                        )

pyscf_calc.run_pyscf(
                  omp_num_threads=omp_num_threads,
                  charge=charge,
                  spin=spin,
                  basis=basis,
                  ecp=ecp,
                  scf_method=scf_method,
                  dft_xc=dft_xc,
                  solver_newton=solver_newton,
                  MP2_flag=MP2_flag,
                  CCSD_flag=CCSD_flag,
                  pyscf_output=pyscf_output,
                  twist_average=twist_average,
                  exp_to_discard=exp_to_discard,
                  kpt=kpt,
                  kpt_grid=kpt_grid,
                  smearing_method=smearing_method,
                  smearing_sigma=smearing_sigma
                  )
                #INFO: ******************** input file end ********************


System: uname_result(system='Linux', node='spcc-200', release='5.4.0-66-generic', version='#74-Ubuntu SMP Wed Jan 27 22:54:38 UTC 2021', machine='x86_64', processor='x86_64')  Threads 128
Python 3.7.3 (default, Mar 27 2019, 22:11:17) 
[GCC 7.3.0]
numpy 1.20.1  scipy 1.7.3
Date: Mon Dec 19 18:09:45 2022
PySCF version 2.0.1
PySCF path  /home/nkousuke/application/anaconda3/lib/python3.7/site-packages/pyscf

[CONFIG] conf_file /home/nkousuke/.pyscf_conf.py
[INPUT] verbose = 5
[INPUT] max_memory = 507501.94921875 
[INPUT] num. atoms = 1
[INPUT] num. electrons = 3
[INPUT] charge = 0
[INPUT] spin (= nelec alpha-beta = 2S) = 1
[INPUT] symmetry False subgroup None
[INPUT] Mole.unit = A
[INPUT]  1 Al     0.000000000000   0.000000000000   0.000000000000 AA    0.000000000000   0.000000000000   0.000000000000 Bohr
[INPUT] ---------------- BASIS SET ---------------- 
[INPUT] l, kappa, [nprim/nctr], expnt,             c_1 c_2 ...
[INPUT] Al
[INPUT] 0    0    [10   /1   ]  8.257944          0.003287
                                4.514245          -0.017168
                                2.467734          0.069766
                                1.348998          -0.183475
                                0.737436          -0.147133
                                0.403123          0.046882
                                0.220369          0.308423
                                0.120466          0.451564
                                0.065853          0.302904
                                0.035999          0.079545
[INPUT] 0    0    [1    /1   ]  0.34729              1
[INPUT] 0    0    [1    /1   ]  0.142082             1
[INPUT] 0    0    [1    /1   ]  0.058128             1
[INPUT] 1    0    [10   /1   ]  1.570603          -0.002645
                                0.977752          -0.03785
                                0.608683          0.006636
                                0.378925          0.089291
                                0.235893          0.134421
                                0.146851          0.256105
                                0.09142           0.23897
                                0.056912          0.260677
                                0.035429          0.11235
                                0.022056          0.052665
[INPUT] 1    0    [1    /1   ]  0.868497             1
[INPUT] 1    0    [1    /1   ]  0.350263             1
[INPUT] 1    0    [1    /1   ]  0.14126              1
[INPUT] 2    0    [1    /1   ]  0.641818             1
[INPUT] 2    0    [1    /1   ]  0.24014              1
[INPUT] 2    0    [1    /1   ]  0.08985              1
[INPUT] 3    0    [1    /1   ]  0.407281             1
[INPUT] 3    0    [1    /1   ]  0.159215             1
[INPUT] 4    0    [1    /1   ]  0.351808             1

nuclear repulsion = 0
number of shells = 14
number of NR pGTOs = 90
number of NR cGTOs = 54
basis = ccecp-ccpvqz
ecp = ccecp
CPU time:         5.77


******** <class 'pyscf.scf.rohf.ROHF'> ********
method = ROHF-RHF
initial guess = minao
damping factor = 0
level_shift factor = 0
DIIS = <class 'pyscf.scf.diis.CDIIS'>
diis_start_cycle = 1
diis_space = 8
SCF conv_tol = 1e-09
SCF conv_tol_grad = None
SCF max_cycles = 200
direct_scf = True
direct_scf_tol = 1e-13
chkfile to save SCF result = pyscf.chk
max_memory 507501 MB (current use 106 MB)
num. doubly occ = 1  num. singly occ = 1
Set gradient conv threshold to 3.16228e-05
E1 = -2.756668508729329  Ecoul = 0.9851837049614278
init E= -1.7714848037679
cond(S) = 685.774171522683
    CPU time for initialize scf     81.34 sec, wall time      0.85 sec

WARN: HOMO -0.00657973814120864 >= LUMO -0.00657973814120861

                  Roothaan           | alpha              | beta
  Highest 2-occ = -0.393850265714891 | -0.393850265714892 | -0.393850265714892
  Lowest 0-occ =  -0.00657973814120861 | -0.00657973814120859 | -0.00657973814120859
  1-occ =         -0.00657973814120864 | -0.00657973814120879 | -0.00657973814120879
  Roothaan mo_energy =
[-3.93850266e-01 -6.57973814e-03 -6.57973814e-03 -6.57973814e-03
  1.88669777e-01  2.29152969e-01  2.29152969e-01  2.29152969e-01
  2.29152969e-01  2.29152969e-01  2.32487715e-01  2.32487715e-01
  2.32487715e-01  6.07183449e-01  6.07183449e-01  6.07183449e-01
  6.07183449e-01  6.07183449e-01  6.07183449e-01  6.07183449e-01
  7.07794011e-01  7.07794011e-01  7.07794011e-01  7.07794011e-01
  7.07794011e-01  9.77942579e-01  9.77942579e-01  9.77942579e-01
  1.04070527e+00  1.72741230e+00  1.72741230e+00  1.72741230e+00
  1.72741230e+00  1.72741230e+00  1.72741230e+00  1.72741230e+00
  1.72741230e+00  1.72741230e+00  1.76530660e+00  1.76530660e+00
  1.76530660e+00  1.76530660e+00  1.76530660e+00  1.76530660e+00
  1.76530660e+00  1.87776510e+00  1.87776510e+00  1.87776510e+00
  1.87776510e+00  1.87776510e+00  3.58147115e+00  3.58147115e+00
  3.58147115e+00  7.54847618e+00]
E1 = -2.702465570285211  Ecoul = 0.8331943321486002
cycle= 1 E= -1.86927123813661  delta_E= -0.0978  |g|= 0.0469  |ddm|= 2.29
    CPU time for cycle= 1     28.00 sec, wall time      0.22 sec
  HOMO = -0.0855764839602678  LUMO = 0.00830641505637232
                  Roothaan           | alpha              | beta
  Highest 2-occ = -0.417210724164327 | -0.442600898938785 | -0.391820549389868
  Lowest 0-occ =  0.00830641505637232 | 0.00177644600369719 | 0.0148363841090475
  1-occ =         -0.0855764839602678 | -0.205794309023403 | 0.0483509621773887
  Roothaan mo_energy =
[-0.41721072 -0.08557648  0.00830642  0.00830642  0.17524048  0.21458562
  0.21458562  0.21819809  0.21819809  0.2195282   0.22004563  0.22004563
  0.22951432  0.58136199  0.58136199  0.59235698  0.59235698  0.59895583
  0.59895583  0.60103378  0.67583608  0.67583608  0.68754897  0.68754897
  0.69161555  0.94632167  0.94632167  0.96235869  1.01321479  1.68492963
  1.68492963  1.69703727  1.69703727  1.70568004  1.70568004  1.71087228
  1.71087228  1.71260505  1.72193625  1.72193625  1.73473772  1.73473772
  1.74250008  1.74250008  1.74509706  1.83431725  1.83431725  1.84784066
  1.84784066  1.85257316  3.53747547  3.53747547  3.55053078  7.50577574]
E1 = -2.7492590844987923  Ecoul = 0.8727802742405899
cycle= 2 E= -1.8764788102582  delta_E= -0.00721  |g|= 0.0148  |ddm|= 1.25
    CPU time for cycle= 2     36.32 sec, wall time      0.28 sec
  HOMO = -0.0711549931644732  LUMO = 0.0207379229060891
                  Roothaan           | alpha              | beta
  Highest 2-occ =  -0.39902001373492 | -0.428613084642328 | -0.367939077618152
  Lowest 0-occ =  0.0207379229060891 | 0.0146235224177425 | 0.0278454853505249
  1-occ =         -0.0711549931644732 | -0.207430603611251 | 0.0700611858166749
  Roothaan mo_energy =
[-0.39902001 -0.07115499  0.02073792  0.02073792  0.18488189  0.22384804
  0.22384804  0.22802554  0.22802554  0.22977626  0.23014417  0.23175085
  0.23175085  0.59257081  0.59257081  0.60410311  0.60410311  0.61102675
  0.61102675  0.61319218  0.69535932  0.69535932  0.70732804  0.70732804
  0.7115304   0.96773769  0.96773769  0.98430689  1.03515253  1.70421638
  1.70421638  1.7178231   1.7178231   1.72755137  1.72755137  1.73340255
  1.73340255  1.73535643  1.74529617  1.74529617  1.7598642   1.7598642
  1.76871139  1.76871139  1.77167023  1.86184675  1.86184675  1.87738861
  1.87738861  1.88284621  3.57030177  3.57030177  3.58557517  7.54211707]
E1 = -2.7552855756577364  Ecoul = 0.8782861890243214
cycle= 3 E= -1.87699938663341  delta_E= -0.000521  |g|= 0.00665  |ddm|= 0.228
    CPU time for cycle= 3     32.24 sec, wall time      0.25 sec
  HOMO = -0.066552787843172  LUMO = 0.0236176457001499
                  Roothaan           | alpha              | beta
  Highest 2-occ = -0.393539904230612 | -0.426573302109723 | -0.363509792034375
  Lowest 0-occ =  0.0236176457001499 | 0.0163975518981499 | 0.0295381614234449
  1-occ =         -0.066552787843172 | -0.208634780280461 | 0.0748447913430308
  Roothaan mo_energy =
[-0.3935399  -0.06655279  0.02361765  0.02361765  0.18818206  0.22622593
  0.22622593  0.22801723  0.23087452  0.23087452  0.23292325  0.23495425
  0.23495425  0.59551745  0.59551745  0.60745194  0.60745194  0.61461545
  0.61461545  0.61683447  0.69989414  0.69989414  0.71212968  0.71212968
  0.71639811  0.97280161  0.97280161  0.98971152  1.04087534  1.70860047
  1.70860047  1.72305903  1.72305903  1.73341002  1.73341002  1.73964184
  1.73964184  1.74172389  1.75024247  1.75024247  1.76582509  1.76582509
  1.77529896  1.77529896  1.77845448  1.86732046  1.86732046  1.88405262
  1.88405262  1.8899493   3.57657788  3.57657788  3.59315481  7.54911041]
E1 = -2.7566804073188127  Ecoul = 0.8795964654020303
cycle= 4 E= -1.87708394191678  delta_E= -8.46e-05  |g|= 0.00037  |ddm|= 0.106
    CPU time for cycle= 4     16.38 sec, wall time      0.13 sec
  HOMO = -0.0671442180734045  LUMO = 0.0233223090241319
                  Roothaan           | alpha              | beta
  Highest 2-occ = -0.393943298116228 | -0.425917237631573 |  -0.36178883424265
  Lowest 0-occ =  0.0233223090241319 | 0.0168005899238677 | 0.0299556712847229
  1-occ =         -0.0671442180734045 | -0.209781432768592 | 0.0756672699914498
  Roothaan mo_energy =
[-0.3939433  -0.06714422  0.02332231  0.02332231  0.18794971  0.22600168
  0.22600168  0.22822715  0.2306067   0.2306067   0.23263992  0.23469697
  0.23469697  0.59524551  0.59524551  0.60714869  0.60714869  0.61429409
  0.61429409  0.61651369  0.6994549   0.6994549   0.71167422  0.71167422
  0.71594156  0.97231815  0.97231815  0.98916156  1.0403586   1.7081432
  1.7081432   1.72255404  1.72255404  1.73286817  1.73286817  1.73907679
  1.73907679  1.74115092  1.74971692  1.74971692  1.76524774  1.76524774
  1.77468772  1.77468772  1.77783289  1.86673881  1.86673881  1.88341585
  1.88341585  1.88928977  3.57592508  3.57592508  3.59244412  7.54841107]
E1 = -2.756589631167339  Ecoul = 0.8795056003909212
cycle= 5 E= -1.87708403077642  delta_E= -8.89e-08  |g|= 5.25e-05  |ddm|= 0.0042
    CPU time for cycle= 5     16.38 sec, wall time      0.13 sec
  HOMO = -0.0670744824704957  LUMO = 0.0233462333974475
                  Roothaan           | alpha              | beta
  Highest 2-occ = -0.393899448617463 | -0.425952269281396 | -0.361852535551121
  Lowest 0-occ =  0.0233462333974475 | 0.0167695196123941 | 0.0299244090695867
  1-occ =         -0.0670744824704957 | -0.209773627021237 | 0.0756288509473545
  Roothaan mo_energy =
[-0.39389945 -0.06707448  0.02334623  0.02334623  0.18797893  0.22602229
  0.22602229  0.22817593  0.23063129  0.23063129  0.23266787  0.23472571
  0.23472571  0.59527157  0.59527157  0.60717685  0.60717685  0.61432349
  0.61432349  0.61654361  0.69949539  0.69949539  0.71171395  0.71171395
  0.71598133  0.97236217  0.97236217  0.98921063  1.0404053   1.70818218
  1.70818218  1.72259896  1.72259896  1.73291724  1.73291724  1.73912832
  1.73912832  1.74120327  1.74976135  1.74976135  1.76529915  1.76529915
  1.77474329  1.77474329  1.77788994  1.86678858  1.86678858  1.8834738
  1.8834738   1.88935051  3.57598292  3.57598292  3.59251128  7.54847512]
E1 = -2.7565903092189386  Ecoul = 0.8795062736368424
cycle= 6 E= -1.8770840355821  delta_E= -4.81e-09  |g|= 4.44e-06  |ddm|= 0.000625
    CPU time for cycle= 6     16.38 sec, wall time      0.13 sec
  HOMO = -0.0670770700976826  LUMO = 0.0233467679839661
                  Roothaan           | alpha              | beta
  Highest 2-occ = -0.393897393054992 | -0.425950497302933 | -0.361844693647048
  Lowest 0-occ =  0.0233467679839661 | 0.0167695166332528 | 0.0299244045575462
  1-occ =         -0.0670770700976826 | -0.209782571001763 | 0.0756327194714382
  Roothaan mo_energy =
[-0.39389739 -0.06707707  0.02334677  0.02334677  0.18797991  0.22602299
  0.22602299  0.22817891  0.23063177  0.23063177  0.23266819  0.23472685
  0.23472685  0.59527255  0.59527255  0.60717767  0.60717767  0.61432421
  0.61432421  0.61654427  0.69949675  0.69949675  0.71171526  0.71171526
  0.71598251  0.97236359  0.97236359  0.98921141  1.04040682  1.70818346
  1.70818346  1.72260028  1.72260028  1.7329186   1.7329186   1.73912972
  1.73912972  1.74120468  1.74976274  1.74976274  1.76530066  1.76530066
  1.77474488  1.77474488  1.7778915   1.86679009  1.86679009  1.88347553
  1.88347553  1.88935232  3.57598465  3.57598465  3.5925133   7.54847702]
E1 = -2.7565917886664293  Ecoul = 0.8795077530352908
cycle= 7 E= -1.87708403563114  delta_E= -4.9e-11  |g|= 7.69e-07  |ddm|= 8.39e-05
    CPU time for cycle= 7     16.38 sec, wall time      0.13 sec
  HOMO = -0.0670747754769338  LUMO = 0.0233473803636826
                  Roothaan           | alpha              | beta
  Highest 2-occ = -0.393896546409817 | -0.425949851294301 | -0.361843241525332
  Lowest 0-occ =  0.0233473803636826 | 0.0167699477698212 | 0.0299248129575438
  1-occ =         -0.0670747754769338 | -0.209783189776509 | 0.0756336195976894
  Roothaan mo_energy =
[-0.39389655 -0.06707478  0.02334738  0.02334738  0.1879805   0.22602348
  0.22602348  0.22817725  0.23063237  0.23063237  0.23266886  0.23472745
  0.23472745  0.59527317  0.59527317  0.60717832  0.60717832  0.61432489
  0.61432489  0.61654495  0.69949773  0.69949773  0.71171616  0.71171616
  0.71598341  0.97236465  0.97236465  0.98921259  1.04040791  1.70818448
  1.70818448  1.72260137  1.72260137  1.73291974  1.73291974  1.73913089
  1.73913089  1.74120586  1.7497639   1.7497639   1.76530189  1.76530189
  1.77474615  1.77474615  1.7778928   1.86679137  1.86679137  1.88347688
  1.88347688  1.88935369  3.57598609  3.57598609  3.59251482  7.54847858]
E1 = -2.7565916020662184  Ecoul = 0.8795075664347218
Extra cycle  E= -1.8770840356315  delta_E= -3.58e-13  |g|= 1.37e-07  |ddm|= 4.98e-06
    CPU time for scf_cycle    259.81 sec, wall time      2.25 sec
    CPU time for SCF    259.81 sec, wall time      2.25 sec
converged SCF energy = -1.8770840356315
