#INFO: **** input file is /home/nkousuke/lustre/toBeSync/turboRVB/05turbo-genius-development/turbogenius_paper/04data/sanity_checks/03pyscf_HF_turbo_VMC_via_trexio/00open_boundary/results/NaCl/pyscf-HF-workflow/run.py ****

from pyscf_wrapper import Pyscf_wrapper

# input variables
pyscf_chkfile="pyscf.chk"
structure_file="NaCl.xyz"

# input variables
omp_num_threads=128
charge=0
spin=0
basis="ccecp-ccpvqz"
ecp="ccecp"
scf_method="HF"
dft_xc="NA"
solver_newton=False
MP2_flag=False
CCSD_flag=False
pyscf_output="out.pyscf"
twist_average=False
exp_to_discard=0.0
kpt=[0.0, 0.0, 0.0]
kpt_grid=[1, 1, 1]
smearing_method="fermi"
smearing_sigma=0.0

pyscf_calc=Pyscf_wrapper(
                        structure_file=structure_file,
                        chkfile=pyscf_chkfile,
                        )

pyscf_calc.run_pyscf(
                  omp_num_threads=omp_num_threads,
                  charge=charge,
                  spin=spin,
                  basis=basis,
                  ecp=ecp,
                  scf_method=scf_method,
                  dft_xc=dft_xc,
                  solver_newton=solver_newton,
                  MP2_flag=MP2_flag,
                  CCSD_flag=CCSD_flag,
                  pyscf_output=pyscf_output,
                  twist_average=twist_average,
                  exp_to_discard=exp_to_discard,
                  kpt=kpt,
                  kpt_grid=kpt_grid,
                  smearing_method=smearing_method,
                  smearing_sigma=smearing_sigma
                  )
                #INFO: ******************** input file end ********************


System: uname_result(system='Linux', node='spcc-145', release='5.4.0-66-generic', version='#74-Ubuntu SMP Wed Jan 27 22:54:38 UTC 2021', machine='x86_64', processor='x86_64')  Threads 128
Python 3.7.3 (default, Mar 27 2019, 22:11:17) 
[GCC 7.3.0]
numpy 1.20.1  scipy 1.7.3
Date: Mon Dec 19 18:03:35 2022
PySCF version 2.0.1
PySCF path  /home/nkousuke/application/anaconda3/lib/python3.7/site-packages/pyscf

[CONFIG] conf_file /home/nkousuke/.pyscf_conf.py
[INPUT] verbose = 5
[INPUT] max_memory = 506567.04296875 
[INPUT] num. atoms = 2
[INPUT] num. electrons = 8
[INPUT] charge = 0
[INPUT] spin (= nelec alpha-beta = 2S) = 0
[INPUT] symmetry False subgroup None
[INPUT] Mole.unit = A
[INPUT]  1 Na     0.000000000000   0.000000000000   0.000000000000 AA    0.000000000000   0.000000000000   0.000000000000 Bohr
[INPUT]  2 Cl     0.000000000000   0.000000000000   2.360800000000 AA    0.000000000000   0.000000000000   4.461265434873 Bohr
[INPUT] ---------------- BASIS SET ---------------- 
[INPUT] l, kappa, [nprim/nctr], expnt,             c_1 c_2 ...
[INPUT] Cl
[INPUT] 0    0    [10   /1   ]  15.583847         0.002501
                                8.858485          -0.010046
                                5.035519          0.08581
                                2.862391          -0.290136
                                1.627098          -0.140314
                                0.924908          0.146839
                                0.525755          0.392484
                                0.29886           0.425061
                                0.169884          0.227195
                                0.096569          0.059828
[INPUT] 0    0    [1    /1   ]  1.038268             1
[INPUT] 0    0    [1    /1   ]  0.418863             1
[INPUT] 0    0    [1    /1   ]  0.16898              1
[INPUT] 1    0    [10   /1   ]  7.682894          -0.004609
                                4.507558          -0.001798
                                2.644587          -0.068614
                                1.551581          0.062352
                                0.910313          0.166337
                                0.534081          0.282292
                                0.313346          0.275967
                                0.18384           0.241328
                                0.107859          0.110223
                                0.063281          0.040289
[INPUT] 1    0    [1    /1   ]  2.626653             1
[INPUT] 1    0    [1    /1   ]  1.069041             1
[INPUT] 1    0    [1    /1   ]  0.435097             1
[INPUT] 2    0    [1    /1   ]  2.102692             1
[INPUT] 2    0    [1    /1   ]  0.763188             1
[INPUT] 2    0    [1    /1   ]  0.277005             1
[INPUT] 3    0    [1    /1   ]  1.139446             1
[INPUT] 3    0    [1    /1   ]  0.434852             1
[INPUT] 4    0    [1    /1   ]  0.844301             1
[INPUT] Na
[INPUT] 0    0    [10   /1   ]  22.091548         -6.4e-05
                                9.660603          0.000452
                                4.224568          -0.002616
                                1.847398          0.024309
                                0.807864          -0.099989
                                0.353278          -0.109801
                                0.154488          0.032993
                                0.067557          0.37763
                                0.029543          0.400459
                                0.012919          0.072453
[INPUT] 0    0    [1    /1   ]  0.01612              1
[INPUT] 0    0    [1    /1   ]  0.03289              1
[INPUT] 0    0    [1    /1   ]  0.067106             1
[INPUT] 1    0    [10   /1   ]  9.29421           1.1e-05
                                4.233556          -8.1e-05
                                1.928405          0.000955
                                0.878398          -0.006278
                                0.400114          -0.009165
                                0.182254          0.011214
                                0.083018          0.064076
                                0.037815          0.027336
                                0.017225          0.027603
                                0.007846          -0.005374
[INPUT] 1    0    [1    /1   ]  0.01342              1
[INPUT] 1    0    [1    /1   ]  0.03126              1
[INPUT] 1    0    [1    /1   ]  0.072816             1
[INPUT] 2    0    [1    /1   ]  0.0487               1
[INPUT] 2    0    [1    /1   ]  0.0865               1
[INPUT] 2    0    [1    /1   ]  0.15364              1
[INPUT] 3    0    [1    /1   ]  0.1036               1
[INPUT] 3    0    [1    /1   ]  0.1912               1
[INPUT] 4    0    [1    /1   ]  0.1722               1

nuclear repulsion = 1.56906153695358
number of shells = 28
number of NR pGTOs = 180
number of NR cGTOs = 108
basis = ccecp-ccpvqz
ecp = ccecp
CPU time:         4.97


******** <class 'pyscf.scf.hf.RHF'> ********
method = RHF
initial guess = minao
damping factor = 0
level_shift factor = 0
DIIS = <class 'pyscf.scf.diis.CDIIS'>
diis_start_cycle = 1
diis_space = 8
SCF conv_tol = 1e-09
SCF conv_tol_grad = None
SCF max_cycles = 200
direct_scf = True
direct_scf_tol = 1e-13
chkfile to save SCF result = pyscf.chk
max_memory 506567 MB (current use 106 MB)
Set gradient conv threshold to 3.16228e-05
E1 = -27.828496569794794  E_coul = 11.567775035154368
init E= -14.6916599976869
cond(S) = 5665.240467376289
    CPU time for initialize scf    105.12 sec, wall time      1.05 sec
  HOMO = -0.45241415487251  LUMO = -0.0536880812818142
  mo_energy =
[-1.12298075 -0.47303951 -0.45241415 -0.45241415 -0.05368808  0.02475061
  0.02475061  0.02825565  0.0518713   0.08330842  0.08330842  0.09949839
  0.12314127  0.12314127  0.14066926  0.14066926  0.15426135  0.22255077
  0.24605752  0.24605752  0.27825019  0.33210545  0.33210545  0.33987402
  0.33987402  0.36598237  0.36598237  0.38805797  0.38805797  0.39991035
  0.43544387  0.43544387  0.47315775  0.55378316  0.58115818  0.58115818
  0.58228457  0.58228457  0.66506491  0.762828    0.762828    0.79106101
  0.79106101  0.85799846  0.87032378  0.87032378  0.88629281  0.88629281
  0.89529824  0.89529824  0.96879013  0.96879013  1.01309705  1.02549559
  1.02549559  1.0407132   1.0407132   1.05353709  1.05353709  1.06432333
  1.20177409  1.20177409  1.2100879   1.5897203   1.5897203   1.60810985
  1.64571346  1.64571346  1.68519623  1.68519623  1.76841054  1.86647046
  1.86647046  2.17091517  2.17091517  2.50927728  2.50927728  2.62556137
  2.88333657  2.88333657  3.00908608  3.5039058   3.95336832  3.95336832
  3.95905206  3.95905206  3.97162569  3.97162569  3.97242835  3.97650421
  3.97650421  4.2799779   4.3858637   4.3858637   4.46842837  4.46842837
  4.47799735  4.53557281  4.53557281  5.12906302  5.12906302  5.15117606
  5.38449082  5.38449082 11.43301495 11.43301495 11.56028497 17.85554249]
E1 = -29.59961269031231  E_coul = 13.064031492286622
cycle= 1 E= -14.9665196610721  delta_E= -0.275  |g|= 0.267  |ddm|= 1.37
    CPU time for cycle= 1     37.27 sec, wall time      0.30 sec
  HOMO = -0.288055822431018  LUMO = -0.0248596466769218
  mo_energy =
[-8.71002834e-01 -3.05692663e-01 -2.88055822e-01 -2.88055822e-01
 -2.48596467e-02  1.78990388e-02  1.78990388e-02  3.10764113e-02
  5.09105390e-02  6.78530747e-02  6.78530747e-02  9.76215359e-02
  1.11871213e-01  1.11871213e-01  1.52920510e-01  1.52920510e-01
  1.72595407e-01  2.16587302e-01  2.31281915e-01  2.31281915e-01
  2.70348243e-01  3.23362582e-01  3.23362582e-01  3.29506739e-01
  3.29506739e-01  3.64842270e-01  3.64842270e-01  3.74652552e-01
  3.74652552e-01  3.91337866e-01  4.56980220e-01  4.56980220e-01
  5.46154410e-01  6.53717836e-01  7.18449325e-01  7.18449325e-01
  7.19710711e-01  7.19710711e-01  7.59278086e-01  7.59278086e-01
  7.59773079e-01  7.69737189e-01  7.69737189e-01  8.62131878e-01
  8.62131878e-01  8.70087533e-01  8.70087533e-01  8.72504900e-01
  9.58487425e-01  9.58487425e-01  9.74594752e-01  9.74594752e-01
  9.78007484e-01  1.00824719e+00  1.00824719e+00  1.03868797e+00
  1.03868797e+00  1.04055238e+00  1.04055238e+00  1.14396440e+00
  1.28342792e+00  1.28342792e+00  1.32430023e+00  1.78595540e+00
  1.78595540e+00  1.79177067e+00  1.86294507e+00  1.86294507e+00
  1.89009905e+00  1.89009905e+00  2.01162498e+00  2.08453781e+00
  2.08453781e+00  2.31341268e+00  2.31341268e+00  2.54894025e+00
  2.54894025e+00  2.62571152e+00  3.14286059e+00  3.14286059e+00
  3.22131748e+00  3.75527172e+00  4.21211656e+00  4.21211656e+00
  4.21667137e+00  4.21667137e+00  4.22425567e+00  4.22846986e+00
  4.22846986e+00  4.23330862e+00  4.23330862e+00  4.33401392e+00
  4.67618601e+00  4.67618601e+00  4.72356761e+00  4.75589193e+00
  4.75589193e+00  4.82133844e+00  4.82133844e+00  5.43684183e+00
  5.43684183e+00  5.45346931e+00  5.68414070e+00  5.68414070e+00
  1.17720889e+01  1.17720889e+01  1.18982320e+01  1.82059447e+01]
E1 = -28.929720502074204  E_coul = 12.369446134093739
cycle= 2 E= -14.9912128310269  delta_E= -0.0247  |g|= 0.105  |ddm|= 0.963
    CPU time for cycle= 2     46.06 sec, wall time      0.36 sec
  HOMO = -0.349053823681557  LUMO = -0.021520861257553
  mo_energy =
[-0.94462003 -0.36579386 -0.34905382 -0.34905382 -0.02152086  0.01947965
  0.01947965  0.03236763  0.05097656  0.07040005  0.07040005  0.09816378
  0.11434255  0.11434255  0.15214179  0.15214179  0.1719282   0.21453436
  0.23564127  0.23564127  0.27161832  0.32820444  0.32820444  0.32921837
  0.32921837  0.36970574  0.36970574  0.3730091   0.3730091   0.39057149
  0.44983284  0.44983284  0.53316625  0.63498751  0.6821041   0.6821041
  0.68696963  0.68696963  0.72447447  0.76686154  0.76686154  0.76733338
  0.76733338  0.86395349  0.86941806  0.86941806  0.87494956  0.87494956
  0.94018471  0.94018471  0.96977191  0.96977191  0.98058403  1.01659408
  1.01659408  1.02780241  1.02780241  1.03592101  1.03592101  1.12093126
  1.26188931  1.26188931  1.29697631  1.73794377  1.73794377  1.74485372
  1.80223138  1.80223138  1.83339287  1.83339287  1.93192527  2.01463051
  2.01463051  2.27613389  2.27613389  2.52799756  2.52799756  2.6258301
  3.05290951  3.05290951  3.13887     3.67282987  4.13416675  4.13416675
  4.13973951  4.13973951  4.15176438  4.15343101  4.15343101  4.15765167
  4.15765167  4.32131055  4.57271341  4.57271341  4.62992165  4.65309829
  4.65309829  4.7187334   4.7187334   5.31696792  5.31696792  5.33719606
  5.56893475  5.56893475 11.62768929 11.62768929 11.75416316 18.05256231]
E1 = -29.089576709961843  E_coul = 12.526574947886273
cycle= 3 E= -14.993940225122  delta_E= -0.00273  |g|= 0.00663  |ddm|= 0.31
    CPU time for cycle= 3     24.05 sec, wall time      0.19 sec
  HOMO = -0.352368368991066  LUMO = -0.020958793118888
  mo_energy =
[-0.94837304 -0.36932193 -0.35236837 -0.35236837 -0.02095879  0.01973616
  0.01973616  0.03259121  0.05102041  0.07080709  0.07080709  0.09838178
  0.11470341  0.11470341  0.15240359  0.15240359  0.17192558  0.21453671
  0.23631013  0.23631013  0.27208954  0.32888969  0.32888969  0.32931356
  0.32931356  0.37043232  0.37043232  0.37298983  0.37298983  0.39081533
  0.44971092  0.44971092  0.53262786  0.63391149  0.68002184  0.68002184
  0.68506162  0.68506162  0.72290388  0.76771273  0.76771273  0.76797933
  0.76797933  0.86399514  0.8705209   0.8705209   0.87571645  0.87571645
  0.93939397  0.93939397  0.96999335  0.96999335  0.98116062  1.01787284
  1.01787284  1.0276985   1.0276985   1.03640011  1.03640011  1.12007591
  1.26142833  1.26142833  1.29591272  1.7345065   1.7345065   1.74211665
  1.79854099  1.79854099  1.82999334  1.82999334  1.92857881  2.0116546
  2.0116546   2.27486467  2.27486467  2.52807346  2.52807346  2.62658075
  3.04911716  3.04911716  3.13646706  3.66897878  4.12938049  4.12938049
  4.13529048  4.13529048  4.14769727  4.14917724  4.14917724  4.15333698
  4.15333698  4.32199611  4.56809328  4.56809328  4.62653454  4.64891184
  4.64891184  4.71469464  4.71469464  5.31294114  5.31294114  5.33354049
  5.56538331  5.56538331 11.62392976 11.62392976 11.75082032 18.04900318]
E1 = -29.085952978679245  E_coul = 12.52291901117412
cycle= 4 E= -14.9939724305516  delta_E= -3.22e-05  |g|= 0.00122  |ddm|= 0.0483
    CPU time for cycle= 4     56.81 sec, wall time      0.44 sec
  HOMO = -0.351805737237253  LUMO = -0.0208739451225454
  mo_energy =
[-0.94789483 -0.3689943  -0.35180574 -0.35180574 -0.02087395  0.01977458
  0.01977458  0.03263001  0.05102643  0.070869    0.070869    0.0984122
  0.11476993  0.11476993  0.1524375   0.1524375   0.17196288  0.21458426
  0.23642706  0.23642706  0.27218352  0.32899675  0.32899675  0.32940145
  0.32940145  0.37055512  0.37055512  0.37311469  0.37311469  0.39086505
  0.44982598  0.44982598  0.5327656   0.63407326  0.68030134  0.68030134
  0.68528646  0.68528646  0.72302609  0.76783326  0.76783326  0.76814384
  0.76814384  0.8641266   0.87069183  0.87069183  0.87587792  0.87587792
  0.93953441  0.93953441  0.97014311  0.97014311  0.98127063  1.01806604
  1.01806604  1.02781344  1.02781344  1.03662081  1.03662081  1.12013696
  1.26165706  1.26165706  1.2962388   1.73468964  1.73468964  1.74228888
  1.79884407  1.79884407  1.83030163  1.83030163  1.92914861  2.01203173
  2.01203173  2.27522179  2.27522179  2.52830559  2.52830559  2.62677392
  3.04962269  3.04962269  3.13675825  3.66968385  4.12976949  4.12976949
  4.13571524  4.13571524  4.14817802  4.14968289  4.14968289  4.15381348
  4.15381348  4.32223455  4.56869773  4.56869773  4.62713039  4.64952615
  4.64952615  4.71533315  4.71533315  5.31368897  5.31368897  5.33438436
  5.56615338  5.56615338 11.62488906 11.62488906 11.75180388 18.05006969]
E1 = -29.085252043704333  E_coul = 12.52221684711365
cycle= 5 E= -14.9939736596371  delta_E= -1.23e-06  |g|= 0.000378  |ddm|= 0.00578
    CPU time for cycle= 5     46.07 sec, wall time      0.36 sec
  HOMO = -0.351755021646276  LUMO = -0.0208974788043391
  mo_energy =
[-0.9478763  -0.36902132 -0.35175502 -0.35175502 -0.02089748  0.01976681
  0.01976681  0.03261955  0.05102166  0.07085289  0.07085289  0.09839531
  0.11475494  0.11475494  0.152432    0.152432    0.17195446  0.21456492
  0.23639209  0.23639209  0.27215321  0.32896755  0.32896755  0.32937834
  0.32937834  0.37052959  0.37052959  0.37308774  0.37308774  0.39084134
  0.44981417  0.44981417  0.53276194  0.63406819  0.68031592  0.68031592
  0.68529094  0.68529094  0.72303981  0.76779384  0.76779384  0.76808888
  0.76808888  0.8640889   0.8706502   0.8706502   0.87583483  0.87583483
  0.93954144  0.93954144  0.97011694  0.97011694  0.98123184  1.01800792
  1.01800792  1.02779091  1.02779091  1.03656671  1.03656671  1.12014577
  1.26163098  1.26163098  1.29619169  1.7347189   1.7347189   1.74233318
  1.79886928  1.79886928  1.83032299  1.83032299  1.92914574  2.01206499
  2.01206499  2.27520484  2.27520484  2.52826609  2.52826609  2.62669613
  3.04966226  3.04966226  3.13685305  3.6696412   4.12979857  4.12979857
  4.13575177  4.13575177  4.14820503  4.14970395  4.14970395  4.15384176
  4.15384176  4.32218272  4.56872339  4.56872339  4.62716985  4.64957489
  4.64957489  4.71538814  4.71538814  5.31370297  5.31370297  5.33440049
  5.56618358  5.56618358 11.62489885 11.62489885 11.75184379 18.0500727 ]
E1 = -29.085230329943517  E_coul = 12.522194999367837
cycle= 6 E= -14.9939737936221  delta_E= -1.34e-07  |g|= 0.000115  |ddm|= 0.00168
    CPU time for cycle= 6     54.20 sec, wall time      0.43 sec
  HOMO = -0.351758634795885  LUMO = -0.0209038108857318
  mo_energy =
[-0.94788486 -0.36905899 -0.35175863 -0.35175863 -0.02090381  0.0197652
  0.0197652   0.03261751  0.0510206   0.07084911  0.07084911  0.09839278
  0.11475152  0.11475152  0.1524366   0.1524366   0.1719538   0.2145612
  0.23638525  0.23638525  0.27214999  0.32895967  0.32895967  0.3293755
  0.3293755   0.3705236   0.3705236   0.37308511  0.37308511  0.39083703
  0.44981636  0.44981636  0.53276699  0.63406799  0.68031297  0.68031297
  0.68529318  0.68529318  0.72303547  0.76778691  0.76778691  0.76807578
  0.76807578  0.86408189  0.87063985  0.87063985  0.87582792  0.87582792
  0.93954209  0.93954209  0.97010875  0.97010875  0.98122117  1.017995
  1.017995    1.02778467  1.02778467  1.03656288  1.03656288  1.12014506
  1.26162827  1.26162827  1.29619158  1.73471988  1.73471988  1.74234193
  1.79886928  1.79886928  1.83032953  1.83032953  1.92914915  2.0120614
  2.0120614   2.27519862  2.27519862  2.52825362  2.52825362  2.62667853
  3.04965293  3.04965293  3.13684689  3.66963708  4.12978571  4.12978571
  4.13574948  4.13574948  4.14821485  4.14971337  4.14971337  4.15384721
  4.15384721  4.32216472  4.56870061  4.56870061  4.62716875  4.64956498
  4.64956498  4.71538666  4.71538666  5.31367702  5.31367702  5.33439711
  5.56617398  5.56617398 11.62486932 11.62486932 11.75183161 18.05004624]
E1 = -29.08521019128233  E_coul = 12.522174844851437
cycle= 7 E= -14.9939738094773  delta_E= -1.59e-08  |g|= 1.85e-05  |ddm|= 0.000791
    CPU time for cycle= 7     52.69 sec, wall time      0.41 sec
  HOMO = -0.351747509533569  LUMO = -0.0209052447251646
  mo_energy =
[-0.94787503 -0.36905093 -0.35174751 -0.35174751 -0.02090524  0.01976464
  0.01976464  0.03261685  0.05102035  0.07084823  0.07084823  0.09839165
  0.11475083  0.11475083  0.1524352   0.1524352   0.17195323  0.2145604
  0.23638358  0.23638358  0.27214816  0.32895827  0.32895827  0.32937478
  0.32937478  0.37052222  0.37052222  0.37308439  0.37308439  0.39083544
  0.44981577  0.44981577  0.53276686  0.63406889  0.68031622  0.68031622
  0.68529478  0.68529478  0.72303741  0.76778499  0.76778499  0.76807303
  0.76807303  0.86407992  0.87063757  0.87063757  0.87582588  0.87582588
  0.93954288  0.93954288  0.97010805  0.97010805  0.98121962  1.01799193
  1.01799193  1.02778415  1.02778415  1.03656036  1.03656036  1.12014552
  1.26162776  1.26162776  1.29619105  1.73472339  1.73472339  1.74234524
  1.79887451  1.79887451  1.83033448  1.83033448  1.92915606  2.01206709
  2.01206709  2.27520078  2.27520078  2.52825257  2.52825257  2.62667552
  3.0496614   3.0496614   3.13685438  3.66964462  4.12979219  4.12979219
  4.13575605  4.13575605  4.14822115  4.14971988  4.14971988  4.15385381
  4.15385381  4.32216258  4.56871037  4.56871037  4.62717746  4.64957507
  4.64957507  4.71539721  4.71539721  5.31368911  5.31368911  5.33440953
  5.56618598  5.56618598 11.62488504 11.62488504 11.75184807 18.05006353]
E1 = -29.08522820163885  E_coul = 12.522192854905835
cycle= 8 E= -14.9939738097794  delta_E= -3.02e-10  |g|= 3.55e-06  |ddm|= 8.49e-05
    CPU time for cycle= 8     48.63 sec, wall time      0.38 sec
  HOMO = -0.351747725200159  LUMO = -0.0209052043439438
  mo_energy =
[-0.94787493 -0.36905086 -0.35174773 -0.35174773 -0.0209052   0.01976466
  0.01976466  0.03261687  0.05102037  0.07084826  0.07084826  0.09839174
  0.11475084  0.11475084  0.15243536  0.15243536  0.17195324  0.21456046
  0.23638362  0.23638362  0.27214827  0.32895828  0.32895828  0.32937479
  0.32937479  0.37052224  0.37052224  0.37308443  0.37308443  0.39083556
  0.44981595  0.44981595  0.53276702  0.63406912  0.68031646  0.68031646
  0.68529497  0.68529497  0.72303765  0.7677851   0.7677851   0.7680731
  0.7680731   0.86408016  0.87063762  0.87063762  0.87582595  0.87582595
  0.93954312  0.93954312  0.97010814  0.97010814  0.98121967  1.01799203
  1.01799203  1.02778425  1.02778425  1.03656054  1.03656054  1.1201457
  1.26162802  1.26162802  1.29619145  1.73472369  1.73472369  1.74234553
  1.79887486  1.79887486  1.83033485  1.83033485  1.92915656  2.01206746
  2.01206746  2.27520108  2.27520108  2.52825277  2.52825277  2.6266757
  3.04966183  3.04966183  3.13685462  3.6696452   4.12979267  4.12979267
  4.13575652  4.13575652  4.14822161  4.14972036  4.14972036  4.1538543
  4.1538543   4.32216277  4.56871088  4.56871088  4.62717788  4.64957554
  4.64957554  4.71539765  4.71539765  5.31368959  5.31368959  5.33440997
  5.56618639  5.56618639 11.62488548 11.62488548 11.75184842 18.05006395]
E1 = -29.08522399525591  E_coul = 12.52218864851144
Extra cycle  E= -14.9939738097909  delta_E= -1.15e-11  |g|= 1.29e-06  |ddm|= 2.8e-05
    CPU time for scf_cycle    519.49 sec, wall time      4.30 sec
    CPU time for SCF    519.97 sec, wall time      4.30 sec
converged SCF energy = -14.9939738097909
