#INFO: **** input file is /home/nkousuke/lustre/toBeSync/turboRVB/05turbo-genius-development/turbogenius_paper/04data/sanity_checks/03pyscf_HF_turbo_VMC_via_trexio/00open_boundary/results/HCO/pyscf-HF-workflow/run.py ****

from pyscf_wrapper import Pyscf_wrapper

# input variables
pyscf_chkfile="pyscf.chk"
structure_file="HCO.xyz"

# input variables
omp_num_threads=128
charge=0
spin=1
basis="ccecp-ccpvqz"
ecp="ccecp"
scf_method="HF"
dft_xc="NA"
solver_newton=False
MP2_flag=False
CCSD_flag=False
pyscf_output="out.pyscf"
twist_average=False
exp_to_discard=0.0
kpt=[0.0, 0.0, 0.0]
kpt_grid=[1, 1, 1]
smearing_method="fermi"
smearing_sigma=0.0

pyscf_calc=Pyscf_wrapper(
                        structure_file=structure_file,
                        chkfile=pyscf_chkfile,
                        )

pyscf_calc.run_pyscf(
                  omp_num_threads=omp_num_threads,
                  charge=charge,
                  spin=spin,
                  basis=basis,
                  ecp=ecp,
                  scf_method=scf_method,
                  dft_xc=dft_xc,
                  solver_newton=solver_newton,
                  MP2_flag=MP2_flag,
                  CCSD_flag=CCSD_flag,
                  pyscf_output=pyscf_output,
                  twist_average=twist_average,
                  exp_to_discard=exp_to_discard,
                  kpt=kpt,
                  kpt_grid=kpt_grid,
                  smearing_method=smearing_method,
                  smearing_sigma=smearing_sigma
                  )
                #INFO: ******************** input file end ********************


System: uname_result(system='Linux', node='spcc-105', release='5.4.0-66-generic', version='#74-Ubuntu SMP Wed Jan 27 22:54:38 UTC 2021', machine='x86_64', processor='x86_64')  Threads 128
Python 3.7.3 (default, Mar 27 2019, 22:11:17) 
[GCC 7.3.0]
numpy 1.20.1  scipy 1.7.3
Date: Mon Dec 19 18:09:33 2022
PySCF version 2.0.1
PySCF path  /home/nkousuke/application/anaconda3/lib/python3.7/site-packages/pyscf

[CONFIG] conf_file /home/nkousuke/.pyscf_conf.py
[INPUT] verbose = 5
[INPUT] max_memory = 507646.28515625 
[INPUT] num. atoms = 3
[INPUT] num. electrons = 11
[INPUT] charge = 0
[INPUT] spin (= nelec alpha-beta = 2S) = 1
[INPUT] symmetry False subgroup None
[INPUT] Mole.unit = A
[INPUT]  1 C      0.064130000000   0.583180000000   0.000000000000 AA    0.121188136368   1.102050481324   0.000000000000 Bohr
[INPUT]  2 O      0.064130000000  -0.583180000000   0.000000000000 AA    0.121188136368  -1.102050481324   0.000000000000 Bohr
[INPUT]  3 H     -0.897790000000   1.241820000000   0.000000000000 AA   -1.696577217373   2.346699696007   0.000000000000 Bohr
[INPUT] ---------------- BASIS SET ---------------- 
[INPUT] l, kappa, [nprim/nctr], expnt,             c_1 c_2 ...
[INPUT] C
[INPUT] 0    0    [9    /1   ]  13.073594         0.0051583
                                6.541187          0.0603424
                                4.573411          -0.1978471
                                1.637494          -0.081034
                                0.819297          0.2321726
                                0.409924          0.2914643
                                0.2313            0.4336405
                                0.102619          0.213194
                                0.051344          0.0049848
[INPUT] 0    0    [1    /1   ]  0.846879             1
[INPUT] 0    0    [1    /1   ]  0.269659             1
[INPUT] 0    0    [1    /1   ]  0.109576             1
[INPUT] 1    0    [9    /1   ]  9.934169          0.0209076
                                3.886955          0.0572698
                                1.871016          0.1122682
                                0.935757          0.2130082
                                0.468003          0.2835815
                                0.239473          0.3011207
                                0.117063          0.2016934
                                0.058547          0.0453575
                                0.029281          0.0029775
[INPUT] 1    0    [1    /1   ]  0.804681             1
[INPUT] 1    0    [1    /1   ]  0.313254             1
[INPUT] 1    0    [1    /1   ]  0.105389             1
[INPUT] 2    0    [1    /1   ]  2.01376              1
[INPUT] 2    0    [1    /1   ]  0.684884             1
[INPUT] 2    0    [1    /1   ]  0.240171             1
[INPUT] 3    0    [1    /1   ]  0.457302             1
[INPUT] 3    0    [1    /1   ]  1.32493              1
[INPUT] 4    0    [1    /1   ]  1.03418              1
[INPUT] O
[INPUT] 0    0    [9    /1   ]  54.775216         -0.0012444
                                25.616801         0.010733
                                11.980245         0.0018889
                                6.992317          -0.1742537
                                2.620277          0.0017622
                                1.225429          0.3161846
                                0.577797          0.4512023
                                0.268022          0.3121534
                                0.125346          0.0511167
[INPUT] 0    0    [1    /1   ]  1.351771             1
[INPUT] 0    0    [1    /1   ]  0.843157             1
[INPUT] 0    0    [1    /1   ]  0.22438              1
[INPUT] 1    0    [9    /1   ]  22.217266         0.0104866
                                10.74755          0.0366435
                                5.315785          0.0803674
                                2.660761          0.162701
                                1.331816          0.2377791
                                0.678626          0.2811422
                                0.333673          0.2643189
                                0.167017          0.1466014
                                0.083598          0.0458145
[INPUT] 1    0    [1    /1   ]  1.106737             1
[INPUT] 1    0    [1    /1   ]  0.452364             1
[INPUT] 1    0    [1    /1   ]  0.148562             1
[INPUT] 2    0    [1    /1   ]  4.008867             1
[INPUT] 2    0    [1    /1   ]  1.344331             1
[INPUT] 2    0    [1    /1   ]  0.455711             1
[INPUT] 3    0    [1    /1   ]  2.763115             1
[INPUT] 3    0    [1    /1   ]  0.876289             1
[INPUT] 4    0    [1    /1   ]  1.759081             1
[INPUT] H
[INPUT] 0    0    [8    /1   ]  23.843185         0.0041149
                                10.212443         0.0104644
                                4.374164          0.0280111
                                1.873529          0.0758862
                                0.802465          0.1821062
                                0.343709          0.3485214
                                0.147217          0.3782313
                                0.063055          0.1164241
[INPUT] 0    0    [1    /1   ]  0.081856             1
[INPUT] 0    0    [1    /1   ]  0.233254             1
[INPUT] 0    0    [1    /1   ]  0.664673             1
[INPUT] 1    0    [1    /1   ]  0.284469             1
[INPUT] 1    0    [1    /1   ]  0.847159             1
[INPUT] 1    0    [1    /1   ]  2.522868             1
[INPUT] 2    0    [1    /1   ]  0.665279             1
[INPUT] 2    0    [1    /1   ]  2.048739             1
[INPUT] 3    0    [1    /1   ]  1.42146              1

nuclear repulsion = 14.2435205616436
number of shells = 38
number of NR pGTOs = 209
number of NR cGTOs = 138
basis = ccecp-ccpvqz
ecp = ccecp
CPU time:         6.45


******** <class 'pyscf.scf.rohf.ROHF'> ********
method = ROHF-RHF
initial guess = minao
damping factor = 0
level_shift factor = 0
DIIS = <class 'pyscf.scf.diis.CDIIS'>
diis_start_cycle = 1
diis_space = 8
SCF conv_tol = 1e-09
SCF conv_tol_grad = None
SCF max_cycles = 200
direct_scf = True
direct_scf_tol = 1e-13
chkfile to save SCF result = pyscf.chk
max_memory 507646 MB (current use 106 MB)
num. doubly occ = 5  num. singly occ = 1
Set gradient conv threshold to 3.16228e-05
E1 = -62.29866065824932  Ecoul = 26.54286470412342
init E= -21.5122753924823
cond(S) = 20799.940450081904
    CPU time for initialize scf    206.36 sec, wall time      1.83 sec
  HOMO = -0.123174850646521  LUMO = -0.00941579698949559
                  Roothaan           | alpha              | beta
  Highest 2-occ = -0.539001279540676 | -0.539001279540677 | -0.539001279540677
  Lowest 0-occ =  -0.00941579698949559 | -0.00941579698949539 | -0.00941579698949539
  1-occ =         -0.123174850646521 | -0.123174850646527 | -0.123174850646527
  Roothaan mo_energy =
[-1.80864466e+00 -8.72092639e-01 -6.39838236e-01 -5.97526667e-01
 -5.39001280e-01 -1.23174851e-01 -9.41579699e-03  1.28477386e-01
  1.92171955e-01  3.24198638e-01  3.45569052e-01  3.66786735e-01
  3.93061890e-01  4.24469452e-01  4.88468968e-01  5.02517181e-01
  5.82712695e-01  5.88949706e-01  6.65819275e-01  7.73348579e-01
  8.16689815e-01  8.96517023e-01  9.59729879e-01  9.93647388e-01
  1.08482205e+00  1.15035301e+00  1.26121672e+00  1.36262389e+00
  1.37583067e+00  1.42784423e+00  1.54910433e+00  1.59181457e+00
  1.59991171e+00  1.66437977e+00  1.81177287e+00  1.81761074e+00
  1.95358785e+00  1.96943169e+00  2.02613933e+00  2.05690184e+00
  2.07432791e+00  2.10618915e+00  2.13341341e+00  2.17444937e+00
  2.25204690e+00  2.31022842e+00  2.46139544e+00  2.55231818e+00
  2.55884061e+00  2.57258896e+00  2.66782773e+00  2.79275522e+00
  2.89871114e+00  2.99377396e+00  3.14471344e+00  3.26826267e+00
  3.29473468e+00  3.50239183e+00  3.57956851e+00  3.63449080e+00
  3.63773544e+00  3.92478105e+00  4.07591817e+00  4.22330834e+00
  4.27425518e+00  4.29898232e+00  4.37217527e+00  4.49208077e+00
  4.53644979e+00  4.70484581e+00  4.72905940e+00  5.18883804e+00
  5.21691268e+00  5.36184038e+00  5.48667195e+00  5.55481255e+00
  5.64449333e+00  5.70428969e+00  5.75836673e+00  5.80527400e+00
  5.81118812e+00  5.83070000e+00  5.92553241e+00  5.94711312e+00
  6.04782926e+00  6.05154227e+00  6.25774607e+00  6.36837220e+00
  6.38869338e+00  6.41828967e+00  6.48572985e+00  6.60957292e+00
  6.81815764e+00  7.03337587e+00  7.05817317e+00  7.24795620e+00
  7.29118442e+00  7.51617663e+00  7.52188590e+00  7.79394297e+00
  7.92827221e+00  7.96596590e+00  8.02548143e+00  8.05775234e+00
  8.17365960e+00  8.36001510e+00  8.37150819e+00  8.68874170e+00
  8.75245772e+00  8.78262959e+00  8.80413335e+00  9.00139692e+00
  9.13675741e+00  9.13840062e+00  9.47272115e+00  9.67615003e+00
  9.85742145e+00  1.00698553e+01  1.01259300e+01  1.02232296e+01
  1.05159798e+01  1.06000260e+01  1.08564478e+01  1.15546943e+01
  1.17113692e+01  1.17267366e+01  1.20530956e+01  1.21272059e+01
  1.24685588e+01  1.26152805e+01  1.30042694e+01  1.30504082e+01
  1.32513784e+01  1.41829638e+01  1.42866746e+01  1.44571180e+01
  1.94460809e+01  3.27296454e+01]
E1 = -63.663938430250674  Ecoul = 27.687315396578324
cycle= 1 E= -21.7331024720287  delta_E= -0.221  |g|= 0.536  |ddm|= 2.29
    CPU time for cycle= 1     89.96 sec, wall time      0.84 sec
  HOMO = -0.169654959556883  LUMO = 0.0895994173372091
                  Roothaan           | alpha              | beta
  Highest 2-occ = -0.543992979225711 | -0.550023538072863 | -0.506670138325901
  Lowest 0-occ =  0.0895994173372091 | 0.0788904408813769 |  0.100308393793052
  1-occ =         -0.169654959556883 | -0.374369214124562 | 0.0599140709011374
  Roothaan mo_energy =
[-1.42598382 -0.86375915 -0.62190661 -0.55128015 -0.54399298 -0.16965496
  0.08959942  0.10050334  0.22580671  0.31754995  0.33233483  0.34754302
  0.4077225   0.43651554  0.53746973  0.54260287  0.56379412  0.61080961
  0.66078555  0.75281522  0.81281868  0.87932642  0.964918    1.02794924
  1.10274559  1.20525716  1.2357376   1.43676391  1.43856889  1.48488552
  1.5072556   1.61008889  1.67117047  1.68944965  1.7828392   1.79057969
  1.904891    1.91644234  1.98333108  2.00606239  2.05895872  2.09581486
  2.15365586  2.24848905  2.32171797  2.34683011  2.43739086  2.49858405
  2.51515353  2.56798079  2.60629967  2.82329031  2.9947979   3.02886909
  3.14079748  3.25403367  3.29121908  3.51889642  3.57217688  3.71980095
  3.73184333  4.05716743  4.21015429  4.40340668  4.48557091  4.5226067
  4.5753306   4.61089168  4.65146816  4.78443425  4.83621308  5.11435393
  5.15035573  5.3617125   5.42267794  5.49391262  5.54779813  5.61189408
  5.69623132  5.74861169  5.75847702  5.76483496  5.88279187  5.90037216
  6.00979953  6.01176477  6.20996073  6.33138459  6.34573495  6.38337114
  6.5144576   6.57912735  6.87294568  6.95140966  7.17456172  7.3793529
  7.42941564  7.49048486  7.50437114  7.82861062  7.8549591   7.92007256
  7.92901689  8.0805655   8.1681676   8.27941465  8.33440655  8.6617207
  8.73267935  9.01542325  9.01770789  9.04128009  9.25922569  9.27034966
  9.55928643  9.74225904  9.8236746  10.08612242 10.31339785 10.36410736
 10.73789274 10.79549469 10.97547781 11.56549613 12.03923574 12.04574411
 12.38328456 12.44971275 12.79623959 12.94297914 13.37451721 13.41586749
 13.55044576 14.51141068 14.60630222 14.7575488  19.37436785 33.19662463]
E1 = -62.784775267282356  Ecoul = 26.797947700666636
cycle= 2 E= -21.7433070049721  delta_E= -0.0102  |g|= 0.531  |ddm|= 0.88
    CPU time for cycle= 2    105.93 sec, wall time      0.84 sec
  HOMO = -0.148653695597745  LUMO = 0.105420986897858
                  Roothaan           | alpha              | beta
  Highest 2-occ = -0.603418113504748 | -0.672049750306111 | -0.587883585137315
  Lowest 0-occ =   0.105420986897858 |  0.110750211073673 |  0.130624491903387
  1-occ =         -0.148653695597745 | -0.358573160297218 |  0.105338623401361
  Roothaan mo_energy =
[-1.49408433 -0.83460572 -0.69349503 -0.60399876 -0.60341811 -0.1486537
  0.10542099  0.12027386  0.21958479  0.33078787  0.35836422  0.36846431
  0.41757233  0.4451707   0.52914468  0.52980816  0.57075189  0.62056474
  0.67705622  0.77230523  0.82564911  0.89408427  0.97291088  1.04505585
  1.07731949  1.20034506  1.26478388  1.4059104   1.41337215  1.46372756
  1.56058456  1.64591778  1.64602972  1.67912392  1.81294908  1.81635664
  1.95695175  1.95788771  2.03164637  2.05961209  2.08909084  2.12617616
  2.19351125  2.19652065  2.29638125  2.35180654  2.46205257  2.52873887
  2.54809322  2.57210686  2.63914434  2.82375303  2.9627846   3.01313362
  3.1580738   3.27898918  3.31456087  3.53148461  3.59814618  3.67720071
  3.68116273  3.99915568  4.15207181  4.32034765  4.3773814   4.40081332
  4.48164312  4.57582383  4.59900844  4.77508326  4.80406225  5.18455265
  5.21525658  5.41592993  5.49551342  5.57513307  5.64680786  5.70341123
  5.78273881  5.8211523   5.82562201  5.84888646  5.94645119  5.96876882
  6.07208617  6.07654554  6.26152682  6.38641973  6.40096538  6.42895754
  6.53467381  6.64300065  6.87572105  7.04954759  7.13632758  7.32710848
  7.38474895  7.51305696  7.52953977  7.83236144  7.92121995  7.95967104
  7.98470848  8.08703344  8.20424371  8.34015491  8.35481116  8.71609885
  8.7763684   8.89038708  8.89101555  9.05405382  9.1983056   9.19890175
  9.54704019  9.71984916  9.8632719  10.1171444  10.22730285 10.29934971
 10.636768   10.7149544  10.93650282 11.59430821 11.85067115 11.86079106
 12.20160515 12.27259939 12.6192202  12.77206565 13.15736245 13.20193925
 13.40432677 14.33280944 14.44143557 14.60778692 19.49886008 32.91476378]
E1 = -63.44556570731542  Ecoul = 27.398743989501607
cycle= 3 E= -21.8033011561702  delta_E= -0.06  |g|= 0.0549  |ddm|= 0.442
    CPU time for cycle= 3     95.29 sec, wall time      0.76 sec
  HOMO = -0.135717416879555  LUMO = 0.118101970493271
                  Roothaan           | alpha              | beta
  Highest 2-occ = -0.585865959326132 |  -0.58855808400051 |  -0.53322776224199
  Lowest 0-occ =   0.118101970493271 |  0.105793891969684 |  0.126823016833641
  1-occ =         -0.135717416879555 | -0.380384846934199 |  0.104159790060787
  Roothaan mo_energy =
[-1.47106646 -0.81882568 -0.68202697 -0.59117366 -0.58586596 -0.13571742
  0.11810197  0.12336572  0.22349119  0.3311794   0.3639517   0.36973361
  0.42143789  0.45471816  0.53378716  0.53662974  0.57740525  0.6287014
  0.68323298  0.77903947  0.83050044  0.898833    0.98087108  1.05297404
  1.08612187  1.21068669  1.27421862  1.41469901  1.4220462   1.47328406
  1.56923782  1.65306678  1.65511682  1.68506111  1.82230731  1.82535119
  1.96596812  1.96766974  2.03812813  2.0660776   2.09719415  2.1338384
  2.20477194  2.20850528  2.31079955  2.36270804  2.47128084  2.54004558
  2.55980389  2.58428291  2.64983381  2.83343872  2.97272816  3.02461516
  3.16819698  3.29133613  3.32604206  3.54694411  3.61256135  3.69170793
  3.69489703  4.0160279   4.1704363   4.33926603  4.39463832  4.41713836
  4.50142771  4.59156021  4.610649    4.78655022  4.81761333  5.19710273
  5.22792632  5.43128684  5.50951856  5.58821195  5.65905857  5.71596244
  5.79459295  5.8308667   5.83511464  5.86087435  5.96058501  5.98046302
  6.08443778  6.09630637  6.27940005  6.40176348  6.41701377  6.44541883
  6.55329171  6.65818204  6.89637743  7.06359203  7.15496046  7.34964931
  7.4073299   7.53060285  7.54649502  7.85142957  7.94054104  7.97693066
  8.00316658  8.11042065  8.22401851  8.36143975  8.37532968  8.73705001
  8.79895701  8.91089587  8.91140496  9.07638625  9.21927996  9.22007569
  9.57130315  9.74253034  9.88392826 10.14208465 10.24882333 10.32103875
 10.66139894 10.74095473 10.95927247 11.61755303 11.877906   11.88798443
 12.22822961 12.29943882 12.64442219 12.79938648 13.18877049 13.23307136
 13.43400602 14.36292386 14.4721221  14.63861791 19.51840764 32.95513728]
E1 = -63.3806964884328  Ecoul = 27.332531372184945
cycle= 4 E= -21.8046445546042  delta_E= -0.00134  |g|= 0.0161  |ddm|= 0.0693
    CPU time for cycle= 4     97.44 sec, wall time      0.80 sec
  HOMO = -0.139042761141007  LUMO = 0.116354881574095
                  Roothaan           | alpha              | beta
  Highest 2-occ = -0.588017782086743 | -0.594094956817642 | -0.540975946056959
  Lowest 0-occ =   0.116354881574095 |  0.104504687940549 |  0.126952217339652
  1-occ =         -0.139042761141007 | -0.386513039284462 |  0.106449076062122
  Roothaan mo_energy =
[-1.47607307 -0.82078328 -0.68669871 -0.59528119 -0.58801778 -0.13904276
  0.11635488  0.1229416   0.22324824  0.33016058  0.36192063  0.36856556
  0.42103385  0.45385625  0.53316894  0.53646646  0.5760723   0.6275741
  0.6813775   0.77776609  0.82942506  0.89786342  0.97936019  1.05141665
  1.08492601  1.20808987  1.27329889  1.41316987  1.42043159  1.47173063
  1.56599102  1.65064454  1.65301909  1.68267189  1.82024888  1.82325691
  1.96412343  1.96604989  2.03565941  2.06338402  2.09447399  2.13090628
  2.20219402  2.20575197  2.30755151  2.36033929  2.47007997  2.53922099
  2.55838256  2.58325823  2.64972594  2.83071295  2.97116532  3.02304987
  3.16643031  3.28982353  3.32406217  3.54458382  3.61084977  3.68973493
  3.69314974  4.01292583  4.16695308  4.33557607  4.39240533  4.41506211
  4.497902    4.58913769  4.60755202  4.78357266  4.81524509  5.19288875
  5.2237962   5.42603826  5.50591566  5.58306675  5.65519524  5.71131073
  5.78920279  5.82648167  5.83024968  5.85523266  5.95605474  5.97652158
  6.07967732  6.09284637  6.27742506  6.40011923  6.41329893  6.44266232
  6.54809535  6.65299069  6.89182843  7.0577476   7.15128576  7.34599434
  7.40153862  7.5286922   7.54299     7.84919664  7.94101453  7.97259454
  8.00343897  8.10731522  8.22114534  8.36190774  8.37334532  8.73376395
  8.7988148   8.90806755  8.90839241  9.075037    9.21670321  9.21776792
  9.56725752  9.73960915  9.88204633 10.1392322  10.24490079 10.31715227
 10.6559907  10.7370717  10.95620116 11.61506961 11.87267939 11.88280981
 12.22352063 12.2947327  12.63927224 12.79551953 13.18219856 13.22652428
 13.42793221 14.35576765 14.46628419 14.63227728 19.51024299 32.94601528]
E1 = -63.40634323126881  Ecoul = 27.357746117567366
cycle= 5 E= -21.8050765520578  delta_E= -0.000432  |g|= 0.0123  |ddm|= 0.0517
    CPU time for cycle= 5     95.09 sec, wall time      0.83 sec
  HOMO = -0.13925266174539  LUMO = 0.117655766014134
                  Roothaan           | alpha              | beta
  Highest 2-occ =   -0.5827653574732 | -0.590172129417947 | -0.540118680909625
  Lowest 0-occ =   0.117655766014134 |  0.105840899892656 |  0.127106908534935
  1-occ =          -0.13925266174539 |  -0.39083612937515 |  0.110829828749079
  Roothaan mo_energy =
[-1.47189908 -0.81856397 -0.68468371 -0.59224509 -0.58276536 -0.13925266
  0.11765577  0.12264609  0.22392193  0.32972493  0.36192173  0.3676181
  0.42193756  0.45416138  0.53391329  0.53838728  0.57603305  0.62788691
  0.68154606  0.77803383  0.82963048  0.89803317  0.97966325  1.05238339
  1.08587551  1.20922604  1.27342571  1.41486702  1.42209327  1.47331801
  1.56693743  1.6515691   1.65480715  1.68348615  1.82061183  1.82377537
  1.96407469  1.96594826  2.03514418  2.06312499  2.09516488  2.13165129
  2.20239203  2.20850027  2.30934487  2.36160912  2.47009794  2.53896602
  2.55852041  2.58383613  2.64965088  2.8317887   2.97335388  3.02408943
  3.16655307  3.29070685  3.32476785  3.54585581  3.61165928  3.69163399
  3.6954775   4.01575341  4.16973159  4.33890299  4.3963708   4.41877749
  4.50180441  4.59202233  4.60927703  4.78553139  4.8176615   5.19353031
  5.22450042  5.42767968  5.50657446  5.5847628   5.65518203  5.71236259
  5.79018598  5.82722438  5.83107672  5.85622741  5.95711382  5.97681336
  6.08059767  6.09380957  6.27763231  6.40003245  6.4139572   6.44330376
  6.55038641  6.65463676  6.89401161  7.05936411  7.15393994  7.34920062
  7.40497816  7.52897917  7.54392247  7.85038654  7.94033832  7.97403497
  8.00245673  8.10923399  8.22212714  8.36142241  8.37395151  8.73479613
  8.79936718  8.9120298   8.91262583  9.07647981  9.21920396  9.22045988
  9.56998804  9.74111536  9.88294886 10.14026882 10.24839058 10.31944235
 10.65943892 10.74146368 10.95951857 11.61673778 11.87799576 11.88800383
 12.22870812 12.29989291 12.64335954 12.801507   13.18808494 13.23226908
 13.43280634 14.36030107 14.4721411  14.63750028 19.51336258 32.95325588]
E1 = -63.39923926487111  Ecoul = 27.350367172047854
cycle= 6 E= -21.8053515311796  delta_E= -0.000275  |g|= 0.00388  |ddm|= 0.0475
    CPU time for cycle= 6     87.14 sec, wall time      0.71 sec
  HOMO = -0.140591956312307  LUMO = 0.117621437608603
                  Roothaan           | alpha              | beta
  Highest 2-occ = -0.582216417411296 | -0.589305201080075 | -0.543606227905223
  Lowest 0-occ =   0.117621437608603 |   0.10580451275946 |   0.12729015061712
  1-occ =         -0.140591956312307 | -0.394966583813723 |  0.113582147815976
  Roothaan mo_energy =
[-1.47215601 -0.81842061 -0.6849177  -0.59247579 -0.58221642 -0.14059196
  0.11762144  0.12293656  0.22398144  0.3290751   0.36137552  0.36729258
  0.42210015  0.45446261  0.53391364  0.53867766  0.57609204  0.62800031
  0.68120957  0.77813825  0.82936898  0.89794064  0.97971013  1.05241152
  1.08626626  1.20871532  1.27373338  1.41477628  1.42208484  1.47337245
  1.56651285  1.65083503  1.65461001  1.68294948  1.82065087  1.82371133
  1.9639358   1.96606075  2.03454405  2.06260671  2.09465768  2.13095911
  2.20192091  2.20846162  2.30918773  2.36139183  2.470245    2.53964762
  2.55901527  2.5843544   2.65048102  2.83137286  2.97326228  3.02432307
  3.1664439   3.29107503  3.32477807  3.5461112   3.61193939  3.69180613
  3.69577175  4.01567291  4.16965397  4.33869381  4.39654217  4.41889327
  4.50175235  4.59198875  4.60874182  4.78493848  4.81750168  5.19327663
  5.22426292  5.42673768  5.50631246  5.58398153  5.65466255  5.71192697
  5.7892526   5.82629717  5.82989152  5.85525548  5.9567029   5.97600693
  6.07974662  6.09394497  6.2781222   6.40052971  6.41347501  6.44341403
  6.5498848   6.65390693  6.89378436  7.05857016  7.15375664  7.34951163
  7.40447779  7.52959537  7.54387837  7.85086659  7.94181916  7.97363047
  8.00376226  8.10971672  8.22243117  8.36283426  8.37453535  8.73496903
  8.80067157  8.91236295  8.9128837   9.07729368  9.21937418  9.22102121
  9.57017187  9.74142237  9.88369783 10.14079221 10.24823371 10.31912381
 10.6589061  10.74175339 10.95983081 11.61716755 11.87809754 11.88811603
 12.22866176 12.29987941 12.64273011 12.80178467 13.18801168 13.23216147
 13.4324298  14.35960261 14.47203276 14.63721579 19.51202331 32.95288148]
E1 = -63.40172247470471  Ecoul = 27.35282126252017
cycle= 7 E= -21.8053806505409  delta_E= -2.91e-05  |g|= 0.000997  |ddm|= 0.0217
    CPU time for cycle= 7     86.66 sec, wall time      0.70 sec
  HOMO = -0.140483927312472  LUMO = 0.117765387772825
                  Roothaan           | alpha              | beta
  Highest 2-occ = -0.582168035405583 | -0.588349005472253 | -0.544583838828341
  Lowest 0-occ =   0.117765387772825 |  0.106148390526963 |  0.127370506385001
  1-occ =         -0.140483927312472 | -0.395703783559807 |  0.114790712628728
  Roothaan mo_energy =
[-1.47220549 -0.81839148 -0.68486238 -0.59241506 -0.58216804 -0.14048393
  0.11776539  0.12301103  0.22396134  0.32913534  0.36143915  0.36740941
  0.42207912  0.45455989  0.53386701  0.53864875  0.57621007  0.62808014
  0.68131405  0.77824899  0.82946488  0.89805929  0.9797379   1.05249147
  1.08630075  1.20880987  1.27383015  1.41474781  1.42208355  1.47335794
  1.56669302  1.65095751  1.65463384  1.68308588  1.82076257  1.82384838
  1.96410671  1.96627425  2.03476095  2.06285594  2.09480954  2.13112086
  2.20209936  2.20850809  2.30921611  2.36147661  2.47035444  2.53976393
  2.55912371  2.58442839  2.65060535  2.83147486  2.97324243  3.02437577
  3.16659228  3.29119147  3.32490183  3.54618492  3.61206829  3.69179561
  3.69572287  4.01566245  4.16964213  4.3386672   4.39643186  4.41877353
  4.5017249   4.59197345  4.60883196  4.78503136  4.81753864  5.19349961
  5.22447906  5.42696364  5.50658841  5.58426656  5.65501644  5.7122505
  5.78958662  5.82663067  5.8302109   5.8555941   5.95693398  5.97629243
  6.08002777  6.09410979  6.27830145  6.40071218  6.41368167  6.44361047
  6.55007107  6.65415471  6.89390786  7.05888682  7.15383764  7.34957331
  7.40454759  7.52976     7.54406986  7.85099207  7.94199161  7.97386524
  8.00392088  8.10983197  8.22261727  8.36298901  8.37471427  8.73514519
  8.80076957  8.91225692  8.91276913  9.07737019  9.21939281  9.22101014
  9.570289    9.74149853  9.88384939 10.14086934 10.24823896 10.31914775
 10.65887307 10.74175972 10.95990264 11.61730711 11.87800577 11.88802763
 12.22856319 12.29979126 12.64258443 12.80173836 13.18794184 13.2320945
 13.43240387 14.35954645 14.47206456 14.63719267 19.51238199 32.95280585]
E1 = -63.40155459590333  Ecoul = 27.35265266353406
cycle= 8 E= -21.8053813707256  delta_E= -7.2e-07  |g|= 0.000274  |ddm|= 0.00235
    CPU time for cycle= 8     88.45 sec, wall time      0.72 sec
  HOMO = -0.140503618887656  LUMO = 0.117751568236885
                  Roothaan           | alpha              | beta
  Highest 2-occ = -0.582188540054716 | -0.588318917184947 | -0.544689592340321
  Lowest 0-occ =   0.117751568236885 |  0.106135552567617 |  0.127392324191545
  1-occ =         -0.140503618887656 | -0.395667677157775 |  0.114657615074364
  Roothaan mo_energy =
[-1.47226965 -0.81841647 -0.68489386 -0.59252787 -0.58218854 -0.14050362
  0.11775157  0.12301888  0.22394206  0.3291635   0.36142876  0.36743849
  0.42205337  0.45455397  0.53383939  0.538621    0.57620654  0.62807337
  0.68131439  0.7782498   0.8294531   0.89805678  0.9797263   1.05246707
  1.08628458  1.20878941  1.27381293  1.41471356  1.42204667  1.47332778
  1.56668867  1.65094907  1.65460102  1.68307722  1.82075611  1.82383613
  1.96410483  1.96626881  2.03477789  2.06287863  2.09479828  2.13110671
  2.20209327  2.20847152  2.30918086  2.36144939  2.4703394   2.53975261
  2.55911017  2.58439611  2.65058474  2.83145622  2.9731981   3.02435016
  3.16657533  3.29115843  3.32487583  3.54614752  3.6120311   3.69174018
  3.69566778  4.01560298  4.169583    4.33861147  4.39636644  4.41869376
  4.50166514  4.59190806  4.6088057   4.78501155  4.81749691  5.1935001
  5.22447731  5.42694299  5.50657624  5.58425761  5.65502308  5.71224772
  5.78959766  5.82663269  5.83020005  5.85560434  5.95692417  5.97628939
  6.08002387  6.09406807  6.27827108  6.40069123  6.41364961  6.44358174
  6.55004447  6.65413335  6.89386692  7.05887418  7.15380138  7.34950975
  7.40449452  7.52972864  7.54404329  7.85095152  7.94194705  7.9738455
  8.00388104  8.10977454  8.2225833   8.36293457  8.37467168  8.73510178
  8.8007029   8.91216242  8.91267381  9.07730292  9.21932182  9.2209373
  9.57023834  9.74144348  9.88379897 10.14080559 10.24817158 10.3190809
 10.65880565 10.74169269 10.95984582 11.61724579 11.877908   11.8879313
 12.22847864 12.29970782 12.64250211 12.80166621 13.18784615 13.23199782
 13.43234065 14.35946939 14.47199181 14.63713803 19.51237951 32.95271298]
E1 = -63.401516544969525  Ecoul = 27.352614535536755
cycle= 9 E= -21.8053814477891  delta_E= -7.71e-08  |g|= 7.43e-05  |ddm|= 0.000819
    CPU time for cycle= 9     46.06 sec, wall time      0.37 sec
  HOMO = -0.140507502702697  LUMO = 0.117749685708016
                  Roothaan           | alpha              | beta
  Highest 2-occ = -0.582190264689857 | -0.588317929213793 | -0.544700968946094
  Lowest 0-occ =   0.117749685708016 |   0.10613932675043 |   0.12739588933263
  1-occ =         -0.140507502702697 | -0.395623123759896 |  0.114612935453076
  Roothaan mo_energy =
[-1.47228138 -0.8184278  -0.68491075 -0.59255461 -0.58219026 -0.1405075
  0.11774969  0.12301822  0.22393871  0.32917022  0.36142485  0.36744297
  0.4220473   0.45455141  0.53383301  0.53861744  0.57620646  0.62807008
  0.68131341  0.77824943  0.82945439  0.89805874  0.97972145  1.0524607
  1.08627821  1.20878605  1.27380928  1.41470611  1.42203921  1.47332048
  1.56668606  1.65094508  1.65459144  1.68307461  1.82075542  1.82383423
  1.96410288  1.96626808  2.0347777   2.06287961  2.09479698  2.13110649
  2.20209085  2.20846458  2.30917219  2.36144263  2.47033617  2.53975073
  2.55910607  2.58438937  2.65058064  2.83145087  2.97318642  3.02434319
  3.16657132  3.29115335  3.32487047  3.54613892  3.61202394  3.69172874
  3.6956552   4.01559217  4.16957044  4.33859618  4.3963482   4.41867592
  4.50164908  4.59189602  4.60879392  4.78499955  4.81748583  5.19349824
  5.22447516  5.42693275  5.50657164  5.58425076  5.655018    5.71224464
  5.7895912   5.82663161  5.8301983   5.85559887  5.95691849  5.97628299
  6.08001919  6.09405746  6.27826424  6.40068506  6.41364152  6.44357507
  6.5500345   6.65412307  6.89385707  7.05886617  7.15378495  7.3494973
  7.40447834  7.52972189  7.5440331   7.85094046  7.94194033  7.97383488
  8.00387406  8.10976365  8.22257356  8.36292579  8.37466217  8.73509013
  8.80069131  8.91214076  8.91265147  9.07729082  9.21930612  9.22092237
  9.57022615  9.74142977  9.88378945 10.14079234 10.24815786 10.31906545
 10.65878964 10.74168019 10.95983398 11.61723183 11.87788173 11.88790523
 12.22845688 12.29968664 12.64247919 12.80165142 13.18782092 13.23197283
 13.43232562 14.35944799 14.47197658 14.63711992 19.51236402 32.95268832]
E1 = -63.40147611084696  Ecoul = 27.352574096097058
cycle= 10 E= -21.8053814531063  delta_E= -5.32e-09  |g|= 2.22e-05  |ddm|= 0.000224
    CPU time for cycle= 10    134.38 sec, wall time      1.08 sec
  HOMO = -0.140501874360398  LUMO = 0.117752220574868
                  Roothaan           | alpha              | beta
  Highest 2-occ =  -0.58218795602535 | -0.588318501591925 |  -0.54470873841446
  Lowest 0-occ =   0.117752220574868 |  0.106141900964008 |  0.127397678926466
  1-occ =         -0.140501874360398 | -0.395610391687598 |  0.114605943844816
  Roothaan mo_energy =
[-1.47228129 -0.81842816 -0.68491215 -0.59255498 -0.58218796 -0.14050187
  0.11775222  0.12301802  0.22393837  0.32917249  0.36142646  0.36744492
  0.42204611  0.45455177  0.53383239  0.53861734  0.57620749  0.62807021
  0.68131545  0.77825075  0.82945548  0.89806005  0.97972182  1.05246041
  1.08627728  1.20878829  1.27380899  1.41470574  1.42203876  1.4733201
  1.56668927  1.65094796  1.65459217  1.68307757  1.82075705  1.82383602
  1.96410514  1.96627027  2.03478168  2.0628842   2.09479986  2.13110991
  2.20209387  2.20846581  2.30917302  2.36144381  2.47033638  2.53974952
  2.55910554  2.58438806  2.65057895  2.83145266  2.97318628  3.02434266
  3.16657206  3.29115287  3.32487083  3.54613829  3.61202383  3.69172712
  3.69565311  4.01559095  4.16956934  4.33859595  4.39634686  4.41867354
  4.50164861  4.59189492  4.60879612  4.78500237  4.81748697  5.19350232
  5.22447904  5.42693728  5.50657595  5.5842564   5.65502407  5.71225045
  5.78959795  5.82663773  5.83020502  5.8556054   5.95692235  5.97628784
  6.08002428  6.09405878  6.27826391  6.40068501  6.41364414  6.44357607
  6.55003689  6.65412746  6.89385827  7.05887219  7.1537868   7.3494967
  7.40448008  7.52972136  7.5440352   7.85093957  7.94193652  7.97383802
  8.00387025  8.10976287  8.22257378  8.36292221  8.37466138  8.73509124
  8.8006876   8.9121359   8.9126467   9.07728812  9.21930425  9.22091926
  9.5702263   9.74142911  9.88378861 10.14079076 10.24815711 10.31906522
 10.65878951 10.74167958 10.9598339  11.61723207 11.87787798 11.88790158
 12.22845569 12.29968548 12.64247966 12.80165189 13.18781914 13.23197105
 13.43232722 14.35944914 14.47197813 14.6371227  19.51237143 32.95269054]
E1 = -63.40145835203832  Ecoul = 27.352556336888057
cycle= 11 E= -21.8053814535066  delta_E= -4e-10  |g|= 5.48e-06  |ddm|= 6.45e-05
    CPU time for cycle= 11    110.30 sec, wall time      0.93 sec
  HOMO = -0.140502397634204  LUMO = 0.117751735453443
                  Roothaan           | alpha              | beta
  Highest 2-occ = -0.582188595322399 | -0.588319966331296 |  -0.54470914977538
  Lowest 0-occ =   0.117751735453443 |  0.106141620019107 |  0.127397635753829
  1-occ =         -0.140502397634204 |   -0.3956079406742 |  0.114603394131238
  Roothaan mo_energy =
[-1.47228259 -0.81842902 -0.68491321 -0.59255538 -0.5821886  -0.1405024
  0.11775174  0.12301774  0.22393821  0.32917254  0.3614262   0.36744476
  0.42204588  0.45455136  0.53383223  0.5386171   0.5762073   0.62806991
  0.6813152   0.77825052  0.82945536  0.89805993  0.97972148  1.05245995
  1.08627676  1.20878784  1.27380869  1.4147053   1.42203832  1.47331963
  1.56668884  1.6509475   1.65459162  1.68307728  1.82075682  1.82383575
  1.9641048   1.96627002  2.03478136  2.06288389  2.09479953  2.13110966
  2.2020935   2.20846511  2.30917235  2.36144331  2.47033605  2.5397492
  2.5591051   2.5843876   2.65057867  2.83145212  2.97318569  3.02434212
  3.16657159  3.29115245  3.32487035  3.54613762  3.61202331  3.69172646
  3.6956524   4.01559011  4.1695684   4.33859486  4.39634582  4.41867261
  4.50164745  4.59189415  4.60879533  4.78500157  4.81748625  5.19350192
  5.22447863  5.42693631  5.50657544  5.58425562  5.65502353  5.71224997
  5.78959714  5.82663722  5.83020459  5.8556046   5.95692167  5.9762872
  6.08002358  6.09405809  6.27826335  6.40068451  6.41364352  6.44357545
  6.55003578  6.65412659  6.89385729  7.05887139  7.1537857   7.34949565
  7.40447873  7.52972083  7.54403446  7.85093877  7.94193623  7.97383702
  8.0038699   8.10976199  8.22257294  8.36292188  8.3746607   8.73509045
  8.80068711  8.91213462  8.91264535  9.07728741  9.2193033   9.22091833
  9.57022517  9.74142823  9.88378805 10.14079001 10.24815603 10.31906426
 10.65878828 10.7416784  10.95983289 11.61723126 11.87787617 11.88789979
 12.22845419 12.29968398 12.64247838 12.80165056 13.1878172  13.23196914
 13.4323258  14.35944753 14.47197656 14.63712109 19.51236977 32.95268827]
E1 = -63.40146114023878  Ecoul = 27.35255912507269
Extra cycle  E= -21.8053814535225  delta_E= -1.58e-11  |g|= 2.29e-06  |ddm|= 1.28e-05
    CPU time for scf_cycle   1336.88 sec, wall time     11.19 sec
    CPU time for SCF   1337.26 sec, wall time     11.19 sec
converged SCF energy = -21.8053814535225
