#INFO: **** input file is /home/nkousuke/lustre/toBeSync/turboRVB/05turbo-genius-development/turbogenius_paper/04data/sanity_checks/03pyscf_HF_turbo_VMC_via_trexio/00open_boundary/results/CH2_triplet/pyscf-HF-workflow/run.py ****

from pyscf_wrapper import Pyscf_wrapper

# input variables
pyscf_chkfile="pyscf.chk"
structure_file="CH2_triplet.xyz"

# input variables
omp_num_threads=128
charge=0
spin=2
basis="ccecp-ccpvqz"
ecp="ccecp"
scf_method="HF"
dft_xc="NA"
solver_newton=False
MP2_flag=False
CCSD_flag=False
pyscf_output="out.pyscf"
twist_average=False
exp_to_discard=0.0
kpt=[0.0, 0.0, 0.0]
kpt_grid=[1, 1, 1]
smearing_method="fermi"
smearing_sigma=0.0

pyscf_calc=Pyscf_wrapper(
                        structure_file=structure_file,
                        chkfile=pyscf_chkfile,
                        )

pyscf_calc.run_pyscf(
                  omp_num_threads=omp_num_threads,
                  charge=charge,
                  spin=spin,
                  basis=basis,
                  ecp=ecp,
                  scf_method=scf_method,
                  dft_xc=dft_xc,
                  solver_newton=solver_newton,
                  MP2_flag=MP2_flag,
                  CCSD_flag=CCSD_flag,
                  pyscf_output=pyscf_output,
                  twist_average=twist_average,
                  exp_to_discard=exp_to_discard,
                  kpt=kpt,
                  kpt_grid=kpt_grid,
                  smearing_method=smearing_method,
                  smearing_sigma=smearing_sigma
                  )
                #INFO: ******************** input file end ********************


System: uname_result(system='Linux', node='spcc-200', release='5.4.0-66-generic', version='#74-Ubuntu SMP Wed Jan 27 22:54:38 UTC 2021', machine='x86_64', processor='x86_64')  Threads 128
Python 3.7.3 (default, Mar 27 2019, 22:11:17) 
[GCC 7.3.0]
numpy 1.20.1  scipy 1.7.3
Date: Mon Dec 19 18:08:57 2022
PySCF version 2.0.1
PySCF path  /home/nkousuke/application/anaconda3/lib/python3.7/site-packages/pyscf

[CONFIG] conf_file /home/nkousuke/.pyscf_conf.py
[INPUT] verbose = 5
[INPUT] max_memory = 507470.25390625 
[INPUT] num. atoms = 3
[INPUT] num. electrons = 6
[INPUT] charge = 0
[INPUT] spin (= nelec alpha-beta = 2S) = 2
[INPUT] symmetry False subgroup None
[INPUT] Mole.unit = A
[INPUT]  1 C      0.000000000000   0.000000000000   0.105270000000 AA    0.000000000000   0.000000000000   0.198931469133 Bohr
[INPUT]  2 H      0.000000000000   0.989640000000  -0.315820000000 AA    0.000000000000   1.870148561915  -0.596813304660 Bohr
[INPUT]  3 H      0.000000000000  -0.989640000000  -0.315820000000 AA    0.000000000000  -1.870148561915  -0.596813304660 Bohr
[INPUT] ---------------- BASIS SET ---------------- 
[INPUT] l, kappa, [nprim/nctr], expnt,             c_1 c_2 ...
[INPUT] H
[INPUT] 0    0    [8    /1   ]  23.843185         0.0041149
                                10.212443         0.0104644
                                4.374164          0.0280111
                                1.873529          0.0758862
                                0.802465          0.1821062
                                0.343709          0.3485214
                                0.147217          0.3782313
                                0.063055          0.1164241
[INPUT] 0    0    [1    /1   ]  0.081856             1
[INPUT] 0    0    [1    /1   ]  0.233254             1
[INPUT] 0    0    [1    /1   ]  0.664673             1
[INPUT] 1    0    [1    /1   ]  0.284469             1
[INPUT] 1    0    [1    /1   ]  0.847159             1
[INPUT] 1    0    [1    /1   ]  2.522868             1
[INPUT] 2    0    [1    /1   ]  0.665279             1
[INPUT] 2    0    [1    /1   ]  2.048739             1
[INPUT] 3    0    [1    /1   ]  1.42146              1
[INPUT] C
[INPUT] 0    0    [9    /1   ]  13.073594         0.0051583
                                6.541187          0.0603424
                                4.573411          -0.1978471
                                1.637494          -0.081034
                                0.819297          0.2321726
                                0.409924          0.2914643
                                0.2313            0.4336405
                                0.102619          0.213194
                                0.051344          0.0049848
[INPUT] 0    0    [1    /1   ]  0.846879             1
[INPUT] 0    0    [1    /1   ]  0.269659             1
[INPUT] 0    0    [1    /1   ]  0.109576             1
[INPUT] 1    0    [9    /1   ]  9.934169          0.0209076
                                3.886955          0.0572698
                                1.871016          0.1122682
                                0.935757          0.2130082
                                0.468003          0.2835815
                                0.239473          0.3011207
                                0.117063          0.2016934
                                0.058547          0.0453575
                                0.029281          0.0029775
[INPUT] 1    0    [1    /1   ]  0.804681             1
[INPUT] 1    0    [1    /1   ]  0.313254             1
[INPUT] 1    0    [1    /1   ]  0.105389             1
[INPUT] 2    0    [1    /1   ]  2.01376              1
[INPUT] 2    0    [1    /1   ]  0.684884             1
[INPUT] 2    0    [1    /1   ]  0.240171             1
[INPUT] 3    0    [1    /1   ]  0.457302             1
[INPUT] 3    0    [1    /1   ]  1.32493              1
[INPUT] 4    0    [1    /1   ]  1.03418              1

nuclear repulsion = 4.20358401737378
number of shells = 34
number of NR pGTOs = 160
number of NR cGTOs = 114
basis = ccecp-ccpvqz
ecp = ccecp
CPU time:         6.40


******** <class 'pyscf.scf.rohf.ROHF'> ********
method = ROHF-RHF
initial guess = minao
damping factor = 0
level_shift factor = 0
DIIS = <class 'pyscf.scf.diis.CDIIS'>
diis_start_cycle = 1
diis_space = 8
SCF conv_tol = 1e-09
SCF conv_tol_grad = None
SCF max_cycles = 200
direct_scf = True
direct_scf_tol = 1e-13
chkfile to save SCF result = pyscf.chk
max_memory 507470 MB (current use 106 MB)
num. doubly occ = 2  num. singly occ = 2
Set gradient conv threshold to 3.16228e-05
E1 = -17.222076125932116  Ecoul = 6.857312787692278
init E= -6.16117932086606
cond(S) = 34489.95983285421
    CPU time for initialize scf    101.42 sec, wall time      1.09 sec
  HOMO = -0.132127316125852  LUMO = 0.102329805100714
                  Roothaan           | alpha              | beta
  Highest 2-occ = -0.525783098477059 | -0.525783098477067 | -0.525783098477067
  Lowest 0-occ =   0.102329805100714 |  0.102329805100725 |  0.102329805100725
  1-occ =         -0.183805467453796 | -0.183805467453796 | -0.183805467453796
  1-occ =         -0.132127316125852 | -0.132127316125848 | -0.132127316125848
  Roothaan mo_energy =
[-1.05714957 -0.5257831  -0.18380547 -0.13212732  0.10232981  0.16271315
  0.28745841  0.31655088  0.35819381  0.36067945  0.43044823  0.51072077
  0.55313556  0.62324697  0.6299756   0.74069535  0.80085775  0.85013018
  0.89022093  0.96891367  0.97705145  1.09144129  1.10983331  1.35224996
  1.36855474  1.59436163  1.66265311  1.76297964  1.7749241   1.84692163
  1.86806246  1.93319719  1.96893305  1.97638372  2.02974126  2.09933283
  2.1110992   2.13664508  2.23784613  2.42402524  2.445993    2.53074727
  2.5786596   2.61498133  2.63258065  2.69349688  2.77004366  2.83659391
  2.88871961  3.36567615  3.39190697  3.47154915  3.54274482  3.67126104
  3.67499667  3.91740178  4.02195014  5.124625    5.12838419  5.31674877
  5.34696606  5.37460548  5.42065334  5.55165365  5.55621715  5.61143496
  5.64130303  5.75051886  5.78032943  5.79464612  5.81499362  5.96226356
  6.06023025  6.14917834  6.20693922  6.32259698  6.42234474  6.48185872
  6.5752136   6.63066059  6.69099023  6.89022894  6.98137319  7.10700639
  7.3507704   7.50648393  7.69462155  7.79958978  7.85071825  7.90355426
  7.94655533  7.96278132  7.98488432  8.00914699  8.02645684  8.39122511
  8.39309313  8.46154933  8.46348273  8.60212398  8.71361627  9.13417528
  9.13944033  9.20912257  9.28695761 10.08053036 10.43550399 10.44370765
 10.45651226 10.5458508  10.77828296 11.43755893 12.99366967 19.80330016]
E1 = -17.50163500192624  Ecoul = 6.758638686272693
cycle= 1 E= -6.53941229827976  delta_E= -0.378  |g|= 0.17  |ddm|=    2
    CPU time for cycle= 1    120.96 sec, wall time      1.03 sec
  HOMO = -0.16023887502269  LUMO = 0.115913457447836
                  Roothaan           | alpha              | beta
  Highest 2-occ = -0.643911206019997 | -0.668562365435904 |  -0.61926004660409
  Lowest 0-occ =   0.115913457447836 |  0.108166702906546 |  0.122352747945514
  1-occ =         -0.191511197188224 | -0.468073641838963 |  0.100330008891666
  1-occ =          -0.16023887502269 |  -0.42085268046847 |  0.127313982941317
  Roothaan mo_energy =
[-0.91715921 -0.64391121 -0.1915112  -0.16023888  0.11591346  0.1579835
  0.29350196  0.32200052  0.37997372  0.38014284  0.4595136   0.53290664
  0.55131041  0.62735539  0.63430305  0.73694678  0.80155313  0.84915804
  0.89468031  0.97163759  0.97617111  1.08967539  1.11130494  1.36478426
  1.38496356  1.61627159  1.68278382  1.77369785  1.78486785  1.85617622
  1.87718454  1.94336347  1.98046677  1.98909469  2.04525849  2.11582406
  2.12873982  2.1510704   2.25354592  2.42370611  2.44714221  2.52333987
  2.57824074  2.60676336  2.62976561  2.68614361  2.7580982   2.82919412
  2.88304059  3.37034708  3.39752139  3.48048284  3.55612442  3.68217123
  3.6849784   3.92964793  4.03127186  5.13913322  5.14238736  5.3381104
  5.37051419  5.40192291  5.44754212  5.58234819  5.58263721  5.64199871
  5.66759945  5.77889172  5.80103861  5.81489711  5.85017675  5.99077274
  6.08519376  6.17514355  6.2319124   6.32975275  6.42894696  6.49874726
  6.58204049  6.65542411  6.69769799  6.91071127  6.99327555  7.1279203
  7.37254377  7.51266281  7.69421569  7.79701534  7.84440534  7.90272783
  7.93257852  7.95125945  7.97005004  7.99835999  8.00442149  8.40042019
  8.40709628  8.46212952  8.47924612  8.62525123  8.73316035  9.14583484
  9.15141685  9.21284456  9.30597013 10.10062001 10.45557965 10.45840812
 10.46790137 10.57077482 10.80459228 11.46213364 13.02322942 19.84359391]
E1 = -17.79341955962036  Ecoul = 7.0289136309151985
cycle= 2 E= -6.56092191133138  delta_E= -0.0215  |g|= 0.0728  |ddm|= 0.458
    CPU time for cycle= 2     63.16 sec, wall time      0.50 sec
  HOMO = -0.104360685437716  LUMO = 0.124368172767691
                  Roothaan           | alpha              | beta
  Highest 2-occ = -0.602300601005998 | -0.621327674950514 | -0.574059002569355
  Lowest 0-occ =   0.124368172767691 |  0.119722376216307 |  0.130818148761509
  1-occ =         -0.141514852815282 | -0.446732108523024 |  0.169092333466067
  1-occ =         -0.104360685437716 | -0.389470861835766 |  0.190256601629609
  Roothaan mo_energy =
[-0.86159308 -0.6023006  -0.14151485 -0.10436069  0.12436817  0.16456919
  0.30689067  0.32961383  0.38374521  0.38665159  0.48471002  0.56076986
  0.57324215  0.64864553  0.65569671  0.75139757  0.81681347  0.86282315
  0.90971735  0.98369385  0.99412237  1.10575561  1.1315372   1.3903893
  1.41755854  1.6630605   1.72332329  1.80364068  1.81520412  1.8898414
  1.91594345  1.97303953  2.00827738  2.01941087  2.07941182  2.15919739
  2.17294848  2.18416397  2.29652466  2.44663973  2.4781162   2.54973068
  2.60831691  2.6349929   2.6533777   2.70825482  2.77991143  2.85005193
  2.90626942  3.4017145   3.43160241  3.51352489  3.59822564  3.72385137
  3.72781064  3.97390482  4.07051932  5.19255962  5.19587091  5.3978891
  5.4305406   5.46905104  5.50758969  5.63869439  5.65274077  5.71154534
  5.71903718  5.83715858  5.86779784  5.88129532  5.91396121  6.05967111
  6.14537472  6.23714503  6.29154992  6.36945168  6.46869732  6.55721888
  6.62845564  6.71970003  6.74797531  6.98475252  7.04619899  7.19852161
  7.43797694  7.55748136  7.73549693  7.84000569  7.88143791  7.94763749
  7.96844988  7.98742865  8.00188522  8.0345606   8.03509296  8.44391207
  8.45976269  8.50280912  8.53366543  8.68892299  8.79128113  9.19199269
  9.19883271  9.25948102  9.35822033 10.15702912 10.51038885 10.51542512
 10.52276664 10.63476476 10.86872047 11.52458257 13.09370618 19.95360913]
E1 = -17.72380233714657  Ecoul = 6.956639266749535
cycle= 3 E= -6.56357905302325  delta_E= -0.00266  |g|= 0.0201  |ddm|= 0.138
    CPU time for cycle= 3     56.03 sec, wall time      0.44 sec
  HOMO = -0.110598274208059  LUMO = 0.125325228657713
                  Roothaan           | alpha              | beta
  Highest 2-occ = -0.606512725415143 | -0.631641505618939 | -0.585566245939751
  Lowest 0-occ =   0.125325228657713 |    0.1191769791688 |  0.130050340040569
  1-occ =         -0.150284075276427 |  -0.46560837327031 |  0.162563185176387
  1-occ =         -0.110598274208059 | -0.402344439948818 |  0.179559670766105
  Roothaan mo_energy =
[-0.86088254 -0.60651273 -0.15028408 -0.11059827  0.12532523  0.16555778
  0.30652726  0.32903942  0.38088109  0.38415329  0.48546385  0.56057961
  0.57364497  0.64644637  0.65335675  0.75315294  0.81620157  0.86374955
  0.90817167  0.98317168  0.99460311  1.10585299  1.13161751  1.39098745
  1.4177718   1.65441694  1.71544941  1.80031338  1.81196129  1.8884556
  1.91472809  1.97175925  2.00655057  2.01661558  2.07625904  2.15325393
  2.16613619  2.18001981  2.29252954  2.44776428  2.4788473   2.55279595
  2.60973837  2.63856377  2.65546078  2.71165572  2.78321734  2.85266872
  2.90859106  3.40082364  3.43155972  3.51363725  3.59860949  3.7224328
  3.72598663  3.97331745  4.07041513  5.185505    5.18877126  5.39450299
  5.42571663  5.45845187  5.49944878  5.63361643  5.64195097  5.70021194
  5.71147095  5.82811277  5.85585435  5.86903884  5.90641408  6.05237991
  6.14046526  6.23319011  6.28625077  6.37150028  6.47051781  6.5527987
  6.62857069  6.71746641  6.74901598  6.97608865  7.04422742  7.19006422
  7.43018621  7.55685608  7.73734519  7.84643515  7.88596348  7.95181559
  7.97622239  7.99389963  8.00878427  8.04269388  8.04286369  8.45047128
  8.46430968  8.51068942  8.53835998  8.6858458   8.79026521  9.19738931
  9.20622676  9.26614215  9.36448823 10.1595019  10.5121884  10.51499101
 10.52492884 10.63624224 10.8714839  11.52379631 13.09207694 19.93463633]
E1 = -17.74309486496412  Ecoul = 6.975345618974063
cycle= 4 E= -6.56416522861627  delta_E= -0.000586  |g|= 0.00574  |ddm|= 0.0716
    CPU time for cycle= 4    149.52 sec, wall time      1.20 sec
  HOMO = -0.107921610257488  LUMO = 0.125530070000618
                  Roothaan           | alpha              | beta
  Highest 2-occ = -0.605285091915628 | -0.627705127927024 | -0.582093871166073
  Lowest 0-occ =   0.125530070000618 |  0.120244359878156 |  0.130779478931825
  1-occ =         -0.147932150733138 |  -0.46692293368031 |  0.171198103837347
  1-occ =         -0.107921610257488 | -0.400834054112066 |  0.185831216213527
  Roothaan mo_energy =
[-0.85797353 -0.60528509 -0.14793215 -0.10792161  0.12553007  0.16573167
  0.30589315  0.32932521  0.3806288   0.38429305  0.48576404  0.56133873
  0.57396714  0.64669997  0.65358875  0.75323133  0.81639307  0.8639083
  0.9088284   0.98356401  0.9948087   1.1062266   1.13200019  1.39151951
  1.4185296   1.65593743  1.71724774  1.80104998  1.81265561  1.88902602
  1.91515719  1.97239383  2.00713553  2.01748443  2.07719101  2.15458573
  2.16755803  2.18131607  2.29355992  2.44839167  2.47944482  2.55305008
  2.61002868  2.63890822  2.65590716  2.71197738  2.78356901  2.85308615
  2.90887935  3.40172182  3.43230101  3.5143419   3.59953457  3.72334801
  3.72706948  3.97442043  4.0712626   5.18715736  5.19041933  5.39518594
  5.4267551   5.46115703  5.50161834  5.63528608  5.64479917  5.7030215
  5.71343628  5.8304357   5.85873323  5.8720725   5.90836312  6.0541074
  6.14193112  6.2348902   6.28787192  6.37233676  6.47120397  6.5545242
  6.62949666  6.71922576  6.74971005  6.97823707  7.04588608  7.19264287
  7.4328515   7.55827209  7.7384248   7.84685512  7.88660226  7.95259873
  7.97674313  7.99462138  8.00918115  8.04326528  8.04334272  8.45083702
  8.46485561  8.5109277   8.53863542  8.68731509  8.79174504  9.19783399
  9.20649239  9.26646146  9.36481574 10.16058691 10.51327303 10.51621226
 10.52596409 10.63739916 10.8722208  11.52515723 13.09385803 19.93970749]
E1 = -17.737648168401385  Ecoul = 6.969862704446582
cycle= 5 E= -6.56420144658102  delta_E= -3.62e-05  |g|= 0.00145  |ddm|= 0.0176
    CPU time for cycle= 5     98.17 sec, wall time      0.82 sec
  HOMO = -0.108412586496763  LUMO = 0.125561305954285
                  Roothaan           | alpha              | beta
  Highest 2-occ = -0.605361693081799 | -0.628202415916917 | -0.582706737943937
  Lowest 0-occ =   0.125561305954285 |   0.12029815518625 |  0.130802425538648
  1-occ =         -0.148961334417269 | -0.468801173029669 |  0.170709415755247
  1-occ =         -0.108412586496763 | -0.402181044298485 |  0.185197229473813
  Roothaan mo_energy =
[-0.85786744 -0.60536169 -0.14896133 -0.10841259  0.12556131  0.16586442
  0.30608521  0.32904907  0.38044918  0.38387861  0.48574383  0.56128471
  0.57391855  0.64656278  0.65340856  0.75329654  0.81632366  0.86394183
  0.90847651  0.98338814  0.99487832  1.10622871  1.1321046   1.39137903
  1.41844916  1.65545214  1.71648973  1.80076292  1.81241305  1.88889087
  1.91512309  1.97211272  2.00681635  2.01704697  2.07681624  2.15420477
  2.16712804  2.18077199  2.2933379   2.44822798  2.47944084  2.55330265
  2.61021829  2.63910458  2.65596129  2.71213872  2.78368833  2.85304972
  2.90893885  3.40142823  3.43215526  3.51416961  3.59938941  3.7231725
  3.72693719  3.97422833  4.07109507  5.18676251  5.19003409  5.3951351
  5.42656882  5.46048821  5.50100164  5.63464429  5.64414594  5.70233616
  5.71271997  5.82971771  5.85809489  5.87138739  5.90777133  6.05374915
  6.14164378  6.23452322  6.28745769  6.37221946  6.47115     6.55423131
  6.62946363  6.71896607  6.74979     6.97796232  7.04559845  7.19217135
  7.43234171  7.55802768  7.73841293  7.84707977  7.88665051  7.95271875
  7.9770116   7.99479188  8.00944349  8.04352971  8.04366336  8.45090256
  8.46493863  8.51113013  8.53884258  8.68705668  8.79153908  9.19782934
  9.20664232  9.26663574  9.36487586 10.16045151 10.51313071 10.51606232
 10.52593506 10.63732967 10.8721824  11.52488369 13.09359303 19.93890578]
E1 = -17.738436538790697  Ecoul = 6.970649422233885
cycle= 6 E= -6.56420309918303  delta_E= -1.65e-06  |g|= 0.000211  |ddm|= 0.00707
    CPU time for cycle= 6     55.62 sec, wall time      0.53 sec
  HOMO = -0.108356115760968  LUMO = 0.125570758795142
                  Roothaan           | alpha              | beta
  Highest 2-occ = -0.605287708224329 |   -0.6280239156393 | -0.582521675576223
  Lowest 0-occ =   0.125570758795142 |  0.120329902408822 |  0.130812596742334
  1-occ =         -0.148860917767367 | -0.468776743902452 |  0.171099448014363
  1-occ =         -0.108356115760968 | -0.402130864936567 |  0.185516474142338
  Roothaan mo_energy =
[-0.8578739  -0.60528771 -0.14886092 -0.10835612  0.12557076  0.16588519
  0.30609759  0.32906514  0.38041673  0.3838944   0.48577465  0.56133633
  0.57395719  0.64660412  0.65343863  0.75332832  0.81636038  0.86396963
  0.90851123  0.9834156   0.99490736  1.10626023  1.13213764  1.39142324
  1.41850858  1.65550088  1.71655651  1.80080867  1.81245814  1.88894563
  1.91517934  1.97216552  2.0068716   2.01710328  2.07687009  2.1542625
  2.16718211  2.18082696  2.29339033  2.44828179  2.47949739  2.55335344
  2.61026573  2.63916174  2.65601156  2.71218833  2.78374189  2.85310359
  2.90898912  3.40148891  3.4322155   3.51423014  3.59945645  3.72323917
  3.72699707  3.97430405  4.0711618   5.18683631  5.19010772  5.39520603
  5.42663944  5.46055923  5.50107711  5.63472358  5.64421337  5.702411
  5.7127986   5.82979879  5.85817705  5.87146906  5.9078523   6.05382035
  6.14171955  6.23460436  6.28753138  6.37229826  6.471225    6.55430694
  6.62953664  6.71905049  6.7498696   6.97803454  7.04568141  7.19224321
  7.43242521  7.55810808  7.73849087  7.84716559  7.88672828  7.95279901
  7.97709512  7.99487165  8.00951887  8.04361266  8.04374238  8.4509929
  8.46502639  8.51121882  8.53893167  8.68713365  8.79162295  9.19792147
  9.20673677  9.26672784  9.36497369 10.16054169 10.51322362 10.51615084
 10.52602437 10.63742382 10.87227624 11.52497057 13.09368113 19.93895882]
E1 = -17.738332713062047  Ecoul = 6.970545555259951
cycle= 7 E= -6.56420314042831  delta_E= -4.12e-08  |g|= 6.65e-05  |ddm|= 0.00226
    CPU time for cycle= 7    137.07 sec, wall time      1.12 sec
  HOMO = -0.108344466443713  LUMO = 0.125571192881186
                  Roothaan           | alpha              | beta
  Highest 2-occ = -0.605281278971215 | -0.628026093043107 | -0.582527681746714
  Lowest 0-occ =   0.125571192881186 |  0.120329299705977 |  0.130814259312401
  1-occ =         -0.148868537929024 | -0.468804392174586 |  0.171082033450309
  1-occ =         -0.108344466443713 | -0.402177081585151 |  0.185511541471156
  Roothaan mo_energy =
[-0.85786089 -0.60528128 -0.14886854 -0.10834447  0.12557119  0.16588671
  0.30610025  0.32906307  0.38039943  0.38389119  0.48577607  0.56134048
  0.57395689  0.6466024   0.65343527  0.75332821  0.8163589   0.86396798
  0.90850885  0.9834136   0.99490748  1.10626149  1.13213899  1.39142313
  1.41851018  1.65549706  1.71655697  1.80080632  1.81245615  1.88894469
  1.91517838  1.97216365  2.00686876  2.01710089  2.07686731  2.1542622
  2.16718103  2.18082584  2.29339097  2.44828098  2.4794984   2.5533542
  2.61026662  2.63916352  2.65601139  2.71218853  2.78374338  2.85310408
  2.90898856  3.40148873  3.43221516  3.51422863  3.59945619  3.72323932
  3.72699881  3.97430472  4.07116143  5.18683734  5.19010886  5.39520534
  5.42663933  5.46056359  5.5010787   5.63472138  5.64421774  5.70241524
  5.71279811  5.82980025  5.85818245  5.87147444  5.90785247  6.05382239
  6.14172031  6.23460453  6.28753105  6.37229699  6.4712237   6.55430914
  6.6295367   6.71905172  6.7498702   6.97803991  7.0456824   7.19224773
  7.43243085  7.55810916  7.73849224  7.84716506  7.8867283   7.95279947
  7.97709561  7.99487277  8.00951906  8.04361245  8.0437436   8.45098995
  8.46502363  8.51121614  8.53892881  8.68713436  8.79162352  9.19791849
  9.20673317  9.26672607  9.36496985 10.16054029 10.5132226  10.51615135
 10.52602366 10.63742283 10.87227413 11.52497003 13.09368216 19.93897515]
E1 = -17.738322257968537  Ecoul = 6.970535095506441
cycle= 8 E= -6.56420314508831  delta_E= -4.66e-09  |g|= 2.55e-05  |ddm|= 0.00118
    CPU time for cycle= 8     86.24 sec, wall time      0.71 sec
  HOMO = -0.108341145280587  LUMO = 0.125571208961121
                  Roothaan           | alpha              | beta
  Highest 2-occ = -0.605278948471296 | -0.628024917813085 | -0.582526488982649
  Lowest 0-occ =   0.125571208961121 |  0.120329857692984 |  0.130813654190318
  1-occ =         -0.148868014218658 | -0.468807474849264 |  0.171079474469014
  1-occ =         -0.108341145280587 | -0.402184796742184 |  0.185511514792025
  Roothaan mo_energy =
[-0.85785771 -0.60527895 -0.14886801 -0.10834115  0.12557121  0.16588697
  0.30610049  0.32906324  0.38039778  0.38389189  0.48577617  0.56134108
  0.57395707  0.64660318  0.65343594  0.75332825  0.81635914  0.86396754
  0.90850982  0.9834138   0.99490781  1.10626179  1.13213919  1.39142369
  1.41851064  1.65549783  1.71655901  1.8008074   1.81245726  1.88894568
  1.91517927  1.97216434  2.00686908  2.01710162  2.07686795  2.15426371
  2.16718255  2.18082719  2.29339252  2.44828099  2.4794989   2.55335402
  2.6102669   2.63916368  2.65601122  2.71218815  2.78374324  2.85310406
  2.90898847  3.40148949  3.43221583  3.51422898  3.59945668  3.72323985
  3.7270002   3.97430529  4.07116216  5.18683951  5.19011107  5.39520741
  5.42664144  5.46056607  5.5010805   5.63472254  5.6442208   5.70241798
  5.71279919  5.8298019   5.85818535  5.87147729  5.9078542   6.05382507
  6.14172194  6.234606    6.28753271  6.37229695  6.47122381  6.55431082
  6.62953751  6.719053    6.74987125  6.97804335  7.04568321  7.19225064
  7.43243284  7.55810973  7.73849247  7.84716493  7.88672828  7.95279958
  7.97709512  7.99487246  8.00951859  8.04361179  8.04374291  8.4509895
  8.4650238   8.51121552  8.53892921  8.68713611  8.79162447  9.19791816
  9.20673258  9.266726    9.36496965 10.16054061 10.51322283 10.51615237
 10.52602423 10.63742349 10.87227496 11.52497119 13.0936834  19.9389816 ]
E1 = -17.73831344869901  Ecoul = 6.97052628530038
cycle= 9 E= -6.56420314602485  delta_E= -9.37e-10  |g|= 4.13e-06  |ddm|= 0.000385
    CPU time for cycle= 9     83.64 sec, wall time      0.66 sec
  HOMO = -0.10833879894535  LUMO = 0.125571490490082
                  Roothaan           | alpha              | beta
  Highest 2-occ = -0.605277012618211 | -0.628026245180343 | -0.582527780056078
  Lowest 0-occ =   0.125571490490082 |  0.120329465118546 |  0.130813516382781
  1-occ =         -0.148865235783917 | -0.468807469161056 |  0.171076619145096
  1-occ =          -0.10833879894535 | -0.402186959270738 |  0.185509710298476
  Roothaan mo_energy =
[-0.85785628 -0.60527701 -0.14886524 -0.1083388   0.12557149  0.16588727
  0.30610058  0.32906362  0.3803975   0.38389264  0.48577699  0.56134226
  0.57395789  0.64660406  0.6534368   0.7533288   0.81635984  0.863968
  0.90851062  0.98341435  0.99490845  1.10626248  1.13213996  1.3914247
  1.41851199  1.65549941  1.71656107  1.80080855  1.8124584   1.888947
  1.91518063  1.97216556  2.00687025  2.01710295  2.07686938  2.1542655
  2.16718442  2.18082876  2.29339425  2.44828203  2.47950013  2.55335495
  2.61026792  2.63916474  2.65601216  2.71218898  2.78374413  2.85310497
  2.90898937  3.4014909   3.4322172   3.5142303   3.59945836  3.72324146
  3.727002    3.9743071   4.07116372  5.1868417   5.19011326  5.39520944
  5.42664361  5.46056907  5.50108312  5.63472484  5.64422384  5.70242106
  5.71280154  5.82980457  5.85818843  5.8714804   5.90785684  6.05382772
  6.1417243   6.23460844  6.28753503  6.37229855  6.47122536  6.55431324
  6.62953928  6.71905554  6.74987308  6.97804634  7.04568545  7.19225361
  7.43243585  7.55811169  7.73849421  7.84716646  7.88672977  7.95280131
  7.9770965   7.99487392  8.00951982  8.04361321  8.04374413  8.45099107
  8.46502561  8.51121694  8.53893098  8.68713853  8.79162677  9.19791984
  9.20673419  9.2667276   9.36497139 10.16054272 10.51322488 10.51615472
 10.52602625 10.6374258  10.87227716 11.52497358 13.09368611 19.93898653]
E1 = -17.738310204291587  Ecoul = 6.970523040884382
Extra cycle  E= -6.56420314603342  delta_E= -8.57e-12  |g|= 1.09e-06  |ddm|= 1.48e-05
    CPU time for scf_cycle   1046.89 sec, wall time      8.84 sec
    CPU time for SCF   1046.99 sec, wall time      8.84 sec
converged SCF energy = -6.56420314603342
