#INFO: **** input file is /home/nkousuke/lustre/toBeSync/turboRVB/05turbo-genius-development/turbogenius_paper/04data/sanity_checks/02pyscf_prep_LDA_via_trexio/00open_boundary/results/H3COH/pyscf-LDA-workflow/run.py ****

from pyscf_wrapper import Pyscf_wrapper

# input variables
pyscf_chkfile="pyscf.chk"
structure_file="H3COH.xyz"

# input variables
omp_num_threads=128
charge=0
spin=0
basis="ccecp-ccpvqz"
ecp="ccecp"
scf_method="DFT"
dft_xc="LDA_X,LDA_C_PZ"
solver_newton=False
MP2_flag=False
CCSD_flag=False
pyscf_output="out.pyscf"
twist_average=False
exp_to_discard=0.1
kpt=[0.0, 0.0, 0.0]
kpt_grid=[1, 1, 1]
smearing_method="fermi"
smearing_sigma=0.0

pyscf_calc=Pyscf_wrapper(
                        structure_file=structure_file,
                        chkfile=pyscf_chkfile,
                        )

pyscf_calc.run_pyscf(
                  omp_num_threads=omp_num_threads,
                  charge=charge,
                  spin=spin,
                  basis=basis,
                  ecp=ecp,
                  scf_method=scf_method,
                  dft_xc=dft_xc,
                  solver_newton=solver_newton,
                  MP2_flag=MP2_flag,
                  CCSD_flag=CCSD_flag,
                  pyscf_output=pyscf_output,
                  twist_average=twist_average,
                  exp_to_discard=exp_to_discard,
                  kpt=kpt,
                  kpt_grid=kpt_grid,
                  smearing_method=smearing_method,
                  smearing_sigma=smearing_sigma
                  )
                #INFO: ******************** input file end ********************


System: uname_result(system='Linux', node='spcc-109', release='5.4.0-66-generic', version='#74-Ubuntu SMP Wed Jan 27 22:54:38 UTC 2021', machine='x86_64', processor='x86_64')  Threads 128
Python 3.7.3 (default, Mar 27 2019, 22:11:17) 
[GCC 7.3.0]
numpy 1.20.1  scipy 1.7.3
Date: Thu Dec 22 05:28:34 2022
PySCF version 2.0.1
PySCF path  /home/nkousuke/application/anaconda3/lib/python3.7/site-packages/pyscf

[CONFIG] conf_file /home/nkousuke/.pyscf_conf.py
[INPUT] verbose = 5
[INPUT] max_memory = 507832.046875 
[INPUT] num. atoms = 6
[INPUT] num. electrons = 14
[INPUT] charge = 0
[INPUT] spin (= nelec alpha-beta = 2S) = 0
[INPUT] symmetry False subgroup None
[INPUT] Mole.unit = A
[INPUT]  1 C     -0.046423000000   0.663069000000   0.000000000000 AA   -0.087726755881   1.253018811689   0.000000000000 Bohr
[INPUT]  2 O     -0.046423000000  -0.755063000000   0.000000000000 AA   -0.087726755881  -1.426862276792   0.000000000000 Bohr
[INPUT]  3 H     -1.086956000000   0.975938000000   0.000000000000 AA   -2.054049149453   1.844255534556   0.000000000000 Bohr
[INPUT]  4 H      0.860592000000  -1.057039000000   0.000000000000 AA    1.626283184992  -1.997514212984   0.000000000000 Bohr
[INPUT]  5 H      0.438145000000   1.071594000000   0.889539000000 AA    0.827974052848   2.025019176727   1.680985087119 Bohr
[INPUT]  6 H      0.438145000000   1.071594000000  -0.889539000000 AA    0.827974052848   2.025019176727  -1.680985087119 Bohr
[INPUT] ---------------- BASIS SET ---------------- 
[INPUT] l, kappa, [nprim/nctr], expnt,             c_1 c_2 ...
[INPUT] O
[INPUT] 0    0    [9    /1   ]  54.775216         -0.0012444
                                25.616801         0.010733
                                11.980245         0.0018889
                                6.992317          -0.1742537
                                2.620277          0.0017622
                                1.225429          0.3161846
                                0.577797          0.4512023
                                0.268022          0.3121534
                                0.125346          0.0511167
[INPUT] 0    0    [1    /1   ]  1.351771             1
[INPUT] 0    0    [1    /1   ]  0.843157             1
[INPUT] 0    0    [1    /1   ]  0.22438              1
[INPUT] 1    0    [9    /1   ]  22.217266         0.0104866
                                10.74755          0.0366435
                                5.315785          0.0803674
                                2.660761          0.162701
                                1.331816          0.2377791
                                0.678626          0.2811422
                                0.333673          0.2643189
                                0.167017          0.1466014
                                0.083598          0.0458145
[INPUT] 1    0    [1    /1   ]  1.106737             1
[INPUT] 1    0    [1    /1   ]  0.452364             1
[INPUT] 1    0    [1    /1   ]  0.148562             1
[INPUT] 2    0    [1    /1   ]  4.008867             1
[INPUT] 2    0    [1    /1   ]  1.344331             1
[INPUT] 2    0    [1    /1   ]  0.455711             1
[INPUT] 3    0    [1    /1   ]  2.763115             1
[INPUT] 3    0    [1    /1   ]  0.876289             1
[INPUT] 4    0    [1    /1   ]  1.759081             1
[INPUT] C
[INPUT] 0    0    [9    /1   ]  13.073594         0.0051583
                                6.541187          0.0603424
                                4.573411          -0.1978471
                                1.637494          -0.081034
                                0.819297          0.2321726
                                0.409924          0.2914643
                                0.2313            0.4336405
                                0.102619          0.213194
                                0.051344          0.0049848
[INPUT] 0    0    [1    /1   ]  0.846879             1
[INPUT] 0    0    [1    /1   ]  0.269659             1
[INPUT] 0    0    [1    /1   ]  0.109576             1
[INPUT] 1    0    [9    /1   ]  9.934169          0.0209076
                                3.886955          0.0572698
                                1.871016          0.1122682
                                0.935757          0.2130082
                                0.468003          0.2835815
                                0.239473          0.3011207
                                0.117063          0.2016934
                                0.058547          0.0453575
                                0.029281          0.0029775
[INPUT] 1    0    [1    /1   ]  0.804681             1
[INPUT] 1    0    [1    /1   ]  0.313254             1
[INPUT] 1    0    [1    /1   ]  0.105389             1
[INPUT] 2    0    [1    /1   ]  2.01376              1
[INPUT] 2    0    [1    /1   ]  0.684884             1
[INPUT] 2    0    [1    /1   ]  0.240171             1
[INPUT] 3    0    [1    /1   ]  0.457302             1
[INPUT] 3    0    [1    /1   ]  1.32493              1
[INPUT] 4    0    [1    /1   ]  1.03418              1
[INPUT] H
[INPUT] 0    0    [8    /1   ]  23.843185         0.0041149
                                10.212443         0.0104644
                                4.374164          0.0280111
                                1.873529          0.0758862
                                0.802465          0.1821062
                                0.343709          0.3485214
                                0.147217          0.3782313
                                0.063055          0.1164241
[INPUT] 0    0    [1    /1   ]  0.081856             1
[INPUT] 0    0    [1    /1   ]  0.233254             1
[INPUT] 0    0    [1    /1   ]  0.664673             1
[INPUT] 1    0    [1    /1   ]  0.284469             1
[INPUT] 1    0    [1    /1   ]  0.847159             1
[INPUT] 1    0    [1    /1   ]  2.522868             1
[INPUT] 2    0    [1    /1   ]  0.665279             1
[INPUT] 2    0    [1    /1   ]  2.048739             1
[INPUT] 3    0    [1    /1   ]  1.42146              1

nuclear repulsion = 25.3369606455445
number of shells = 68
number of NR pGTOs = 320
number of NR cGTOs = 228
basis = ccecp-ccpvqz
ecp = ccecp
CPU time:         5.34


******** <class 'pyscf.df.df_jk.density_fit.<locals>.DFHF'> ********
method = DFHF-RKS-RHF
initial guess = minao
damping factor = 0
level_shift factor = 0
DIIS = <class 'pyscf.scf.diis.CDIIS'>
diis_start_cycle = 1
diis_space = 8
SCF conv_tol = 1e-09
SCF conv_tol_grad = None
SCF max_cycles = 200
direct_scf = True
direct_scf_tol = 1e-13
chkfile to save SCF result = pyscf.chk
max_memory 507832 MB (current use 106 MB)
XC library pyscf.dft.libxc version 5.1.7
    S. Lehtola, C. Steigemann, M. J. Oliveira, and M. A. Marques, SoftwareX 7, 1 (2018)
XC functionals = LDA_X,LDA_C_PZ
    P. A. M. Dirac, Math. Proc. Cambridge Philos. Soc. 26, 376 (1930)
    F. Bloch, Z. Phys. 57, 545 (1929)
    J. P. Perdew and A. Zunger, Phys. Rev. B 23, 5048 (1981)
radial grids: 
    Treutler-Ahlrichs [JCP 102, 346 (1995); DOI:10.1063/1.469408] (M4) radial grids
    
becke partition: Becke, JCP 88, 2547 (1988); DOI:10.1063/1.454033
pruning grids: <function nwchem_prune at 0x1495933d87b8>
grids dens level: 3
symmetrized grids: False
atomic radii adjust function: <function treutler_atomic_radii_adjust at 0x1495933d86a8>
small_rho_cutoff = 1e-07
Set gradient conv threshold to 3.16228e-05
atom C rad-grids = 75, ang-grids = [ 50  50  50  50  50  50  50  50  50  50  50  50  50  50  50  50  50  50
  50  50  50  50  50  86  86  86  86  86  86  86  86  86  86 266 266 266
 266 266 266 266 302 302 302 302 302 302 302 302 302 302 302 302 302 302
 302 302 302 302 302 302 266 266 266 266 266 266 266 266 266 266 266 266
 266 266 266]
atom O rad-grids = 75, ang-grids = [ 50  50  50  50  50  50  50  50  50  50  50  50  50  50  50  50  50  50
  50  50  50  50  86  86  86  86  86  86  86  86  86 266 266 266 266 266
 266 266 302 302 302 302 302 302 302 302 302 302 302 302 302 302 302 302
 302 302 302 266 266 266 266 266 266 266 266 266 266 266 266 266 266 266
 266 266 266]
atom H rad-grids = 50, ang-grids = [ 50  50  50  50  50  50  50  50  50  50  50  50  50  50  86  86  86  86
 266 266 266 266 302 302 302 302 302 302 302 302 302 302 302 302 302 266
 266 266 266 266 266 266 266 266 266 266 266 266 266 266]
tot grids = 68260
Drop grids 7420
    CPU time for setting up grids     55.32 sec, wall time      0.47 sec
nelec by numeric integration = 13.999865178954325
    CPU time for vxc     38.77 sec, wall time      0.30 sec
Even tempered Gaussians are generated as DF auxbasis for  O H C
  ETB auxbasis for O  [[0, [64.177152, 1]], [0, [32.088576, 1]], [0, [16.044288, 1]], [0, [8.022144, 1]], [0, [4.011072, 1]], [0, [2.005536, 1]], [0, [1.002768, 1]], [0, [0.501384, 1]], [0, [0.250692, 1]], [1, [52.41108427692326, 1]], [1, [26.20554213846163, 1]], [1, [13.102771069230815, 1]], [1, [6.551385534615408, 1]], [1, [3.275692767307704, 1]], [1, [1.637846383653852, 1]], [1, [0.818923191826926, 1]], [1, [0.409461595913463, 1]], [1, [0.2047307979567315, 1]], [2, [42.802176, 1]], [2, [21.401088, 1]], [2, [10.700544, 1]], [2, [5.350272, 1]], [2, [2.675136, 1]], [2, [1.337568, 1]], [2, [0.668784, 1]], [2, [0.334392, 1]], [2, [0.167196, 1]], [3, [12.491732442583295, 1]], [3, [6.245866221291648, 1]], [3, [3.122933110645824, 1]], [3, [1.561466555322912, 1]], [3, [0.780733277661456, 1]], [3, [0.390366638830728, 1]], [4, [7.291376, 1]], [4, [3.645688, 1]], [4, [1.822844, 1]], [4, [0.911422, 1]]]
  ETB auxbasis for H  [[0, [32.28416, 1]], [0, [16.14208, 1]], [0, [8.07104, 1]], [0, [4.03552, 1]], [0, [2.01776, 1]], [0, [1.00888, 1]], [0, [0.50444, 1]], [0, [0.25222, 1]], [0, [0.12611, 1]], [1, [8.571507550502421, 1]], [1, [4.2857537752512105, 1]], [1, [2.1428768876256052, 1]], [1, [1.0714384438128026, 1]], [1, [0.5357192219064013, 1]], [1, [0.26785961095320066, 1]], [2, [4.551504, 1]], [2, [2.275752, 1]], [2, [1.137876, 1]], [2, [0.568938, 1]]]
  ETB auxbasis for C  [[0, [13.144064, 1]], [0, [6.572032, 1]], [0, [3.286016, 1]], [0, [1.643008, 1]], [0, [0.821504, 1]], [0, [0.410752, 1]], [0, [0.205376, 1]], [0, [0.102688, 1]], [1, [19.852159834527225, 1]], [1, [9.926079917263612, 1]], [1, [4.963039958631806, 1]], [1, [2.481519979315903, 1]], [1, [1.2407599896579515, 1]], [1, [0.6203799948289758, 1]], [1, [0.3101899974144879, 1]], [1, [0.15509499870724394, 1]], [1, [0.07754749935362197, 1]], [2, [14.991872, 1]], [2, [7.495936, 1]], [2, [3.747968, 1]], [2, [1.873984, 1]], [2, [0.936992, 1]], [2, [0.468496, 1]], [2, [0.234248, 1]], [2, [0.117124, 1]], [2, [0.058562, 1]], [3, [5.36701994787573, 1]], [3, [2.683509973937865, 1]], [3, [1.3417549869689325, 1]], [3, [0.6708774934844662, 1]], [3, [0.3354387467422331, 1]], [3, [0.16771937337111656, 1]], [4, [3.842736, 1]], [4, [1.921368, 1]], [4, [0.960684, 1]], [4, [0.480342, 1]]]
num shells = 149, num cGTOs = 505
    CPU time for df-vj     30.18 sec, wall time      0.23 sec
E1 = -85.65933954173758  Ecoul = 42.973098024852106  Exc = -6.262878972641911
init E= -23.6121598439829
cond(S) = 68190.96347843159
    CPU time for initialize scf    320.86 sec, wall time      2.84 sec
  HOMO = -0.367399310919548  LUMO = -0.0399292513250762
  mo_energy =
[-1.08072592e+00 -7.33314088e-01 -5.78332456e-01 -5.06768353e-01
 -5.00656577e-01 -4.12342322e-01 -3.67399311e-01 -3.99292513e-02
 -2.73712694e-03  3.31919781e-02  4.31727770e-02  5.48501909e-02
  1.34070486e-01  1.40551248e-01  1.85260374e-01  2.21147526e-01
  2.42805606e-01  2.62638999e-01  2.80833478e-01  2.83238857e-01
  2.97299240e-01  3.30237728e-01  3.62114541e-01  4.04806458e-01
  4.37475290e-01  4.60661797e-01  5.86892191e-01  6.12194342e-01
  6.43810848e-01  6.62276805e-01  6.74904308e-01  7.22531354e-01
  7.33064543e-01  7.47873290e-01  8.42336355e-01  8.45601554e-01
  8.75296071e-01  8.99461913e-01  9.23747975e-01  9.48293655e-01
  9.51404440e-01  1.03845347e+00  1.03962566e+00  1.08570378e+00
  1.16309124e+00  1.23130698e+00  1.23179284e+00  1.29790904e+00
  1.31041618e+00  1.48118327e+00  1.57008450e+00  1.57627435e+00
  1.61732049e+00  1.69116401e+00  1.69855784e+00  1.71055442e+00
  1.71755469e+00  1.74640908e+00  1.75103620e+00  1.76725258e+00
  1.84252257e+00  1.93268100e+00  1.93475031e+00  2.00539769e+00
  2.05426251e+00  2.11683765e+00  2.12820125e+00  2.12938890e+00
  2.15769845e+00  2.20837553e+00  2.24433438e+00  2.29252243e+00
  2.30508524e+00  2.32992184e+00  2.33658250e+00  2.39446123e+00
  2.44754837e+00  2.51900169e+00  2.52729374e+00  2.56784363e+00
  2.63637590e+00  2.64363314e+00  2.72942566e+00  2.73342841e+00
  2.79198973e+00  2.82387549e+00  2.88497190e+00  2.95207644e+00
  3.01715454e+00  3.02349472e+00  3.08517033e+00  3.09808894e+00
  3.11994618e+00  3.16872469e+00  3.20973695e+00  3.26186269e+00
  3.32453255e+00  3.42261477e+00  3.53778742e+00  3.64318808e+00
  3.70172543e+00  3.70808081e+00  3.73859815e+00  3.77347414e+00
  3.85250077e+00  3.88597588e+00  3.93205189e+00  3.98162892e+00
  4.11070569e+00  4.22926231e+00  4.41840985e+00  4.47274559e+00
  4.67487821e+00  5.00818105e+00  5.05705951e+00  5.09035283e+00
  5.15840485e+00  5.23102756e+00  5.26968622e+00  5.30369508e+00
  5.32894930e+00  5.44413727e+00  5.54073627e+00  5.68987905e+00
  5.69844770e+00  5.74446714e+00  5.79624032e+00  5.82889451e+00
  5.88292661e+00  5.90790717e+00  5.94035392e+00  5.96441687e+00
  6.05324282e+00  6.06229364e+00  6.09540906e+00  6.10121989e+00
  6.16055611e+00  6.16737947e+00  6.19578586e+00  6.43879064e+00
  6.44376055e+00  6.45017990e+00  6.53568010e+00  6.56981499e+00
  6.57558713e+00  6.64594026e+00  6.78505765e+00  6.91284824e+00
  6.95391804e+00  6.98857141e+00  7.01110623e+00  7.21311239e+00
  7.23342264e+00  7.27335099e+00  7.31287617e+00  7.34116909e+00
  7.35597777e+00  7.41348975e+00  7.42338064e+00  7.48533285e+00
  7.50611565e+00  7.53093552e+00  7.54394062e+00  7.58559049e+00
  7.60408823e+00  7.61260817e+00  7.65690064e+00  7.66720516e+00
  7.75549671e+00  7.79707410e+00  7.88343260e+00  7.97876925e+00
  7.99341433e+00  8.07860681e+00  8.08569526e+00  8.15207892e+00
  8.15787792e+00  8.26032162e+00  8.27214681e+00  8.27358038e+00
  8.31087527e+00  8.38583062e+00  8.39651747e+00  8.44811457e+00
  8.57500435e+00  8.77955485e+00  8.80518021e+00  8.90133656e+00
  8.91360865e+00  8.92769588e+00  8.98629124e+00  9.01235050e+00
  9.12096680e+00  9.19459958e+00  9.39997844e+00  9.47387510e+00
  9.75310497e+00  9.80532329e+00  9.86250963e+00  9.89942890e+00
  9.93482932e+00  1.00042607e+01  1.00265203e+01  1.01030619e+01
  1.01496455e+01  1.01603801e+01  1.02842999e+01  1.03419712e+01
  1.05408619e+01  1.06102799e+01  1.11482987e+01  1.12238332e+01
  1.13969621e+01  1.15552441e+01  1.17779312e+01  1.19483314e+01
  1.20063198e+01  1.22388035e+01  1.22691406e+01  1.23966456e+01
  1.25917318e+01  1.28280193e+01  1.35637235e+01  1.39313366e+01
  1.41403246e+01  1.61185303e+01  2.00658024e+01  3.21298835e+01]
nelec by numeric integration = 14.000015649048791
    CPU time for vxc     48.81 sec, wall time      0.39 sec
    CPU time for df-vj     10.42 sec, wall time      0.08 sec
E1 = -89.27248338104994  Ecoul = 46.975196422211795  Exc = -6.879513180454445
cycle= 1 E= -23.8398394937481  delta_E= -0.228  |g|= 0.783  |ddm|= 4.96
    CPU time for cycle= 1     87.74 sec, wall time      0.70 sec
  HOMO = -0.0555004013637789  LUMO = 0.0290724821158435
  mo_energy =
[-7.48539238e-01 -5.16661071e-01 -3.27369266e-01 -3.06639558e-01
 -2.62309673e-01 -1.24392454e-01 -5.55004014e-02  2.90724821e-02
  6.57750537e-02  9.70329201e-02  1.08432735e-01  1.54763465e-01
  1.88554694e-01  2.12798378e-01  3.15961929e-01  3.38973933e-01
  3.51912559e-01  3.65428655e-01  3.73277895e-01  3.97206909e-01
  4.01297522e-01  4.08586325e-01  4.81625388e-01  4.91595098e-01
  5.19438855e-01  5.27857452e-01  6.32707840e-01  6.86601378e-01
  7.27916168e-01  7.34367106e-01  7.69783995e-01  8.09817179e-01
  8.12953935e-01  8.21847472e-01  9.23711752e-01  9.39484008e-01
  9.78705406e-01  9.85623369e-01  9.94667365e-01  1.02013263e+00
  1.07375632e+00  1.13236380e+00  1.15610050e+00  1.17676573e+00
  1.23316098e+00  1.40254025e+00  1.40557931e+00  1.45734910e+00
  1.49859367e+00  1.63487591e+00  1.68594073e+00  1.72607982e+00
  1.74608374e+00  1.80775451e+00  1.82984490e+00  1.84469250e+00
  1.87935825e+00  1.90061210e+00  1.92801792e+00  1.94305627e+00
  1.98304504e+00  2.04473314e+00  2.07556459e+00  2.08299075e+00
  2.16018404e+00  2.18024097e+00  2.22603454e+00  2.23697781e+00
  2.27890123e+00  2.29717236e+00  2.32736020e+00  2.36631371e+00
  2.39943464e+00  2.40078566e+00  2.48029391e+00  2.51876104e+00
  2.56526728e+00  2.59593549e+00  2.62357339e+00  2.65589441e+00
  2.74555553e+00  2.77087757e+00  2.84562520e+00  2.86826874e+00
  2.87535469e+00  2.93405663e+00  3.00316970e+00  3.09325399e+00
  3.12442315e+00  3.13090957e+00  3.19877130e+00  3.21454884e+00
  3.26715470e+00  3.28389163e+00  3.35139325e+00  3.41877204e+00
  3.50248655e+00  3.60822277e+00  3.69012851e+00  3.82956180e+00
  3.85020290e+00  3.93599220e+00  3.94457212e+00  4.01531940e+00
  4.13977584e+00  4.15062908e+00  4.17992757e+00  4.30961591e+00
  4.36632445e+00  4.51615922e+00  4.66111227e+00  4.74421537e+00
  4.91986223e+00  5.20099070e+00  5.26799474e+00  5.29309884e+00
  5.36737312e+00  5.45758464e+00  5.48096400e+00  5.50235028e+00
  5.54474319e+00  5.65304855e+00  5.70625577e+00  5.84351352e+00
  5.85935974e+00  5.86215072e+00  5.93853858e+00  5.97203310e+00
  5.98992109e+00  6.06841699e+00  6.11476488e+00  6.12072582e+00
  6.17402652e+00  6.17621526e+00  6.25027312e+00  6.28598585e+00
  6.33820317e+00  6.34258401e+00  6.38694958e+00  6.62337012e+00
  6.63120031e+00  6.69479981e+00  6.78758089e+00  6.80830442e+00
  6.81140024e+00  6.86589578e+00  6.96583723e+00  7.12172994e+00
  7.14171585e+00  7.15457634e+00  7.18616785e+00  7.33465580e+00
  7.35537231e+00  7.41211367e+00  7.43205497e+00  7.44370602e+00
  7.48143810e+00  7.52878606e+00  7.54106656e+00  7.61321470e+00
  7.63193238e+00  7.66799621e+00  7.67170746e+00  7.70901660e+00
  7.72112193e+00  7.73311562e+00  7.78228166e+00  7.78604016e+00
  7.85760639e+00  7.89383586e+00  8.02775783e+00  8.07002108e+00
  8.12336179e+00  8.19316531e+00  8.20379801e+00  8.33602032e+00
  8.34704888e+00  8.36855325e+00  8.37356798e+00  8.39618225e+00
  8.41026497e+00  8.56231343e+00  8.59866635e+00  8.69982941e+00
  8.77096086e+00  8.90284117e+00  9.01915165e+00  9.04771507e+00
  9.06148778e+00  9.12196829e+00  9.12393577e+00  9.22683447e+00
  9.32292060e+00  9.43692652e+00  9.64605580e+00  9.80964304e+00
  9.97980385e+00  9.98535129e+00  1.00273703e+01  1.00719433e+01
  1.01461948e+01  1.02006745e+01  1.02006788e+01  1.03502668e+01
  1.03550544e+01  1.03663499e+01  1.04861878e+01  1.05339632e+01
  1.08964120e+01  1.09373814e+01  1.14379757e+01  1.15567981e+01
  1.18530450e+01  1.19895746e+01  1.22229720e+01  1.23243095e+01
  1.23806098e+01  1.25027070e+01  1.25383013e+01  1.28268818e+01
  1.31094707e+01  1.33144274e+01  1.39712132e+01  1.43630650e+01
  1.45783293e+01  1.64933927e+01  2.04174637e+01  3.27734641e+01]
nelec by numeric integration = 14.00002935142903
    CPU time for vxc     39.97 sec, wall time      0.32 sec
    CPU time for df-vj      8.00 sec, wall time      0.06 sec
E1 = -83.31617972584206  Ecoul = 40.408324099424625  Exc = -5.91742123322395
cycle= 2 E= -23.4883162140969  delta_E= 0.352  |g|= 1.52  |ddm|= 3.28
    CPU time for cycle= 2    106.52 sec, wall time      0.84 sec
  HOMO = -0.23923391129741  LUMO = -0.00508390827805416
  mo_energy =
[-9.59369325e-01 -6.14763518e-01 -4.65061644e-01 -3.86278293e-01
 -3.80979905e-01 -2.93732185e-01 -2.39233911e-01 -5.08390828e-03
  3.48035783e-02  7.71487495e-02  7.79321640e-02  1.08011854e-01
  1.67282666e-01  1.81497711e-01  2.54024884e-01  2.68061017e-01
  2.84548541e-01  3.07291736e-01  3.25963171e-01  3.39378728e-01
  3.43217571e-01  3.70536103e-01  4.03926885e-01  4.49638503e-01
  4.80167256e-01  4.89368323e-01  6.16853385e-01  6.51438013e-01
  6.95291549e-01  7.01717364e-01  7.27078813e-01  7.61490902e-01
  7.71762711e-01  7.87027045e-01  8.84650548e-01  8.88331894e-01
  9.27306568e-01  9.40369172e-01  9.61203651e-01  9.81231428e-01
  1.00291348e+00  1.09609689e+00  1.10028176e+00  1.13859621e+00
  1.19754196e+00  1.29880492e+00  1.30494726e+00  1.35983432e+00
  1.39396683e+00  1.55154975e+00  1.63468124e+00  1.63656205e+00
  1.69437677e+00  1.76175493e+00  1.77468478e+00  1.77895874e+00
  1.79317788e+00  1.82436271e+00  1.83849060e+00  1.84766331e+00
  1.91943008e+00  1.99173703e+00  2.00291406e+00  2.05468546e+00
  2.10595171e+00  2.14920440e+00  2.18032658e+00  2.18340772e+00
  2.22255497e+00  2.25833557e+00  2.29306782e+00  2.33511256e+00
  2.35618669e+00  2.37382954e+00  2.38368445e+00  2.45166555e+00
  2.50956651e+00  2.55988576e+00  2.56514610e+00  2.60970115e+00
  2.69146042e+00  2.69925484e+00  2.79446368e+00  2.79696817e+00
  2.83905078e+00  2.88176557e+00  2.94476582e+00  3.01971222e+00
  3.07743023e+00  3.08533874e+00  3.15355103e+00  3.16181686e+00
  3.18992581e+00  3.22865105e+00  3.28135357e+00  3.34625183e+00
  3.40387210e+00  3.50230848e+00  3.61859479e+00  3.73381153e+00
  3.79053470e+00  3.80046191e+00  3.82843065e+00  3.86979685e+00
  3.97060866e+00  3.98551137e+00  4.02980114e+00  4.10704573e+00
  4.20917111e+00  4.34498403e+00  4.50932928e+00  4.58054897e+00
  4.77318117e+00  5.11709795e+00  5.15985825e+00  5.20858752e+00
  5.26951853e+00  5.34596356e+00  5.37389211e+00  5.41782074e+00
  5.44295494e+00  5.56039943e+00  5.62489930e+00  5.78931622e+00
  5.78964293e+00  5.80762229e+00  5.86719151e+00  5.91267139e+00
  5.94568624e+00  5.99844598e+00  6.04884925e+00  6.05173726e+00
  6.12180004e+00  6.13377819e+00  6.17789395e+00  6.18997859e+00
  6.25890050e+00  6.26192243e+00  6.30197787e+00  6.53898233e+00
  6.54459403e+00  6.56487604e+00  6.64533117e+00  6.67527531e+00
  6.69730866e+00  6.70276482e+00  6.86722396e+00  7.03996949e+00
  7.04293942e+00  7.06230405e+00  7.10159293e+00  7.29094474e+00
  7.31465599e+00  7.36647720e+00  7.37021647e+00  7.39490711e+00
  7.41317170e+00  7.47552679e+00  7.49164136e+00  7.54574847e+00
  7.55025643e+00  7.60075252e+00  7.61567745e+00  7.62644382e+00
  7.67075225e+00  7.67956850e+00  7.72340352e+00  7.72737716e+00
  7.80425342e+00  7.85499316e+00  7.96053244e+00  8.02861802e+00
  8.06699796e+00  8.13082602e+00  8.15857104e+00  8.25901039e+00
  8.27573043e+00  8.32704507e+00  8.33695128e+00  8.34656550e+00
  8.37754395e+00  8.46563356e+00  8.47903194e+00  8.56006384e+00
  8.67716824e+00  8.83020945e+00  8.89442261e+00  8.98372995e+00
  9.00508831e+00  9.00669821e+00  9.06169705e+00  9.10675140e+00
  9.21756474e+00  9.28075808e+00  9.50384083e+00  9.60222660e+00
  9.85322217e+00  9.90507922e+00  9.95783139e+00  9.99434183e+00
  1.00373627e+01  1.01136218e+01  1.01359034e+01  1.02148051e+01
  1.02596034e+01  1.02688201e+01  1.03989553e+01  1.04553961e+01
  1.06692621e+01  1.07351209e+01  1.12509799e+01  1.13395518e+01
  1.15603648e+01  1.17083815e+01  1.19371827e+01  1.21022078e+01
  1.21591078e+01  1.23671182e+01  1.23953101e+01  1.25496721e+01
  1.27710672e+01  1.29959398e+01  1.36965751e+01  1.40766921e+01
  1.42872108e+01  1.62407288e+01  2.02633442e+01  3.23443746e+01]
nelec by numeric integration = 14.000020151215427
    CPU time for vxc     34.04 sec, wall time      0.27 sec
    CPU time for df-vj      7.45 sec, wall time      0.06 sec
E1 = -87.40532345879741  Ecoul = 44.640729327284234  Exc = -6.5337829462341155
cycle= 3 E= -23.9614164322028  delta_E= -0.473  |g|= 0.143  |ddm|= 2.31
    CPU time for cycle= 3    118.45 sec, wall time      0.93 sec
  HOMO = -0.23207567866282  LUMO = -0.00594411450221418
  mo_energy =
[-9.46720753e-01 -6.27837179e-01 -4.66127812e-01 -3.98360686e-01
 -3.87009986e-01 -2.94001049e-01 -2.32075679e-01 -5.94411450e-03
  3.06294577e-02  6.99982938e-02  7.18806760e-02  1.04100791e-01
  1.63117089e-01  1.77583462e-01  2.50429515e-01  2.68106268e-01
  2.82457931e-01  3.08066102e-01  3.18234588e-01  3.29504669e-01
  3.35965933e-01  3.66733566e-01  4.05736180e-01  4.46261733e-01
  4.77589968e-01  4.90471309e-01  6.11412289e-01  6.46542027e-01
  6.88295121e-01  6.97325839e-01  7.18710134e-01  7.55140411e-01
  7.68082101e-01  7.83200626e-01  8.79368118e-01  8.87112885e-01
  9.23860582e-01  9.39077953e-01  9.55540469e-01  9.77672419e-01
  9.99128390e-01  1.08621013e+00  1.09360325e+00  1.13322291e+00
  1.19650404e+00  1.30471063e+00  1.30810510e+00  1.36363158e+00
  1.39680606e+00  1.54772271e+00  1.62742145e+00  1.63516416e+00
  1.68132088e+00  1.74917112e+00  1.76815245e+00  1.76987650e+00
  1.78812358e+00  1.81751084e+00  1.82727765e+00  1.83754764e+00
  1.90837110e+00  1.98510716e+00  1.99689644e+00  2.04682938e+00
  2.10044882e+00  2.14763816e+00  2.17677344e+00  2.17818442e+00
  2.21560180e+00  2.25093994e+00  2.28701020e+00  2.32988389e+00
  2.34884670e+00  2.36960103e+00  2.38707121e+00  2.44961005e+00
  2.50329363e+00  2.55655185e+00  2.56793070e+00  2.60756896e+00
  2.68766896e+00  2.69512390e+00  2.78774349e+00  2.79527558e+00
  2.83059574e+00  2.87583395e+00  2.93849972e+00  3.01688853e+00
  3.07016689e+00  3.07580390e+00  3.14029963e+00  3.15171735e+00
  3.18619303e+00  3.22326383e+00  3.27336282e+00  3.33621579e+00
  3.40167558e+00  3.49998043e+00  3.60862457e+00  3.73050701e+00
  3.77574685e+00  3.80178595e+00  3.82482908e+00  3.86852840e+00
  3.97688251e+00  3.98997616e+00  4.03265843e+00  4.11807019e+00
  4.21455495e+00  4.35169532e+00  4.51892934e+00  4.58145458e+00
  4.77706552e+00  5.09665175e+00  5.14824204e+00  5.18594267e+00
  5.25344379e+00  5.32919557e+00  5.36117705e+00  5.39553821e+00
  5.42548452e+00  5.53958690e+00  5.61527242e+00  5.77337756e+00
  5.77810476e+00  5.79673149e+00  5.85942956e+00  5.90031284e+00
  5.93380820e+00  5.98501465e+00  6.02908818e+00  6.04014698e+00
  6.11257296e+00  6.12380605e+00  6.16653676e+00  6.17918560e+00
  6.24370349e+00  6.24512599e+00  6.28398074e+00  6.52487831e+00
  6.53289922e+00  6.56476500e+00  6.63758095e+00  6.67100542e+00
  6.69200824e+00  6.70803338e+00  6.86268229e+00  7.01651923e+00
  7.04087930e+00  7.05156992e+00  7.09037393e+00  7.27843311e+00
  7.30009881e+00  7.35325886e+00  7.36254301e+00  7.39505965e+00
  7.41077858e+00  7.47029882e+00  7.48213813e+00  7.54697857e+00
  7.55628376e+00  7.59432355e+00  7.60799559e+00  7.62562860e+00
  7.66206307e+00  7.66938916e+00  7.71420553e+00  7.72291541e+00
  7.80185446e+00  7.84796451e+00  7.95210299e+00  8.02336308e+00
  8.06060799e+00  8.12856055e+00  8.14956317e+00  8.24211926e+00
  8.25538334e+00  8.31762281e+00  8.32694024e+00  8.33405395e+00
  8.36672101e+00  8.46334162e+00  8.48010393e+00  8.56264343e+00
  8.66754853e+00  8.83394147e+00  8.90171126e+00  8.97810766e+00
  8.99640078e+00  9.00183604e+00  9.05381615e+00  9.09842771e+00
  9.21106869e+00  9.28665810e+00  9.50331458e+00  9.60954849e+00
  9.85610696e+00  9.89590057e+00  9.94556340e+00  9.97992546e+00
  1.00310382e+01  1.00993776e+01  1.01166239e+01  1.02100944e+01
  1.02442479e+01  1.02529570e+01  1.03814432e+01  1.04358225e+01
  1.06835703e+01  1.07411527e+01  1.12645337e+01  1.13516998e+01
  1.15797424e+01  1.17266915e+01  1.19559287e+01  1.21139438e+01
  1.21696771e+01  1.23490543e+01  1.23794704e+01  1.25647600e+01
  1.27914049e+01  1.30149084e+01  1.37158221e+01  1.40964005e+01
  1.43059375e+01  1.62593797e+01  2.02156621e+01  3.23699129e+01]
nelec by numeric integration = 14.000020046260392
    CPU time for vxc     43.35 sec, wall time      0.35 sec
    CPU time for df-vj      8.99 sec, wall time      0.07 sec
E1 = -87.39957927361093  Ecoul = 44.62199345921581  Exc = -6.524889111253397
cycle= 4 E= -23.965514280104  delta_E= -0.0041  |g|= 0.0579  |ddm|= 0.254
    CPU time for cycle= 4    127.11 sec, wall time      1.00 sec
  HOMO = -0.233492590653588  LUMO = -0.0057486263325933
  mo_energy =
[-9.46216119e-01 -6.24273530e-01 -4.64354621e-01 -3.94537869e-01
 -3.84361383e-01 -2.94283368e-01 -2.33492591e-01 -5.74862633e-03
  3.13661492e-02  7.13493346e-02  7.35768933e-02  1.05117463e-01
  1.64037889e-01  1.79017080e-01  2.52541605e-01  2.68170457e-01
  2.83314665e-01  3.08170438e-01  3.20166494e-01  3.31669637e-01
  3.37600909e-01  3.68006173e-01  4.05476686e-01  4.47385994e-01
  4.78635059e-01  4.91034124e-01  6.12675963e-01  6.48400336e-01
  6.90471231e-01  6.98440313e-01  7.20898061e-01  7.56717494e-01
  7.69149456e-01  7.84422819e-01  8.81100600e-01  8.88396644e-01
  9.25124824e-01  9.39696595e-01  9.57114032e-01  9.78446563e-01
  1.00011150e+00  1.08854130e+00  1.09570727e+00  1.13487694e+00
  1.19723127e+00  1.30562286e+00  1.30868079e+00  1.36439578e+00
  1.39723033e+00  1.55067996e+00  1.63091195e+00  1.63708612e+00
  1.68469665e+00  1.75242882e+00  1.77111404e+00  1.77354426e+00
  1.78996105e+00  1.82009355e+00  1.83073353e+00  1.84012262e+00
  1.91154856e+00  1.98744168e+00  1.99947804e+00  2.04889966e+00
  2.10297602e+00  2.14889589e+00  2.17825695e+00  2.18020338e+00
  2.21807415e+00  2.25312346e+00  2.28874883e+00  2.33162702e+00
  2.35080219e+00  2.37115597e+00  2.38715824e+00  2.45083685e+00
  2.50533131e+00  2.55767273e+00  2.56869747e+00  2.60824647e+00
  2.68967894e+00  2.69696323e+00  2.78993118e+00  2.79724635e+00
  2.83267329e+00  2.87803556e+00  2.94053531e+00  3.01840755e+00
  3.07273129e+00  3.07836281e+00  3.14339028e+00  3.15471701e+00
  3.18739901e+00  3.22608001e+00  3.27636856e+00  3.33948826e+00
  3.40372508e+00  3.50220464e+00  3.61149802e+00  3.73335377e+00
  3.77968411e+00  3.80366595e+00  3.82771637e+00  3.87048797e+00
  3.97720152e+00  3.99108099e+00  4.03437223e+00  4.11624976e+00
  4.21476603e+00  4.35055745e+00  4.51872096e+00  4.58293116e+00
  4.77754457e+00  5.10290371e+00  5.15265398e+00  5.19149374e+00
  5.25806408e+00  5.33444785e+00  5.36647922e+00  5.40129640e+00
  5.43058781e+00  5.54561652e+00  5.61930973e+00  5.77811413e+00
  5.78185825e+00  5.79945295e+00  5.86247552e+00  5.90442836e+00
  5.93661883e+00  5.98933477e+00  6.03381868e+00  6.04274757e+00
  6.11575242e+00  6.12660847e+00  6.17018657e+00  6.18353890e+00
  6.24883374e+00  6.24926812e+00  6.28887362e+00  6.52873613e+00
  6.53651455e+00  6.56486397e+00  6.63926623e+00  6.67411351e+00
  6.69323528e+00  6.70920833e+00  6.86560684e+00  7.02293397e+00
  7.04264671e+00  7.05571749e+00  7.09385102e+00  7.28135832e+00
  7.30333474e+00  7.35676719e+00  7.36483801e+00  7.39601775e+00
  7.41204735e+00  7.47214032e+00  7.48427341e+00  7.54845283e+00
  7.55554964e+00  7.59599519e+00  7.61016838e+00  7.62683765e+00
  7.66496050e+00  7.67176464e+00  7.71693603e+00  7.72489630e+00
  7.80334237e+00  7.84979679e+00  7.95447602e+00  8.02525560e+00
  8.06330047e+00  8.13011426e+00  8.15241929e+00  8.24637247e+00
  8.26021579e+00  8.32030288e+00  8.32917134e+00  8.33690396e+00
  8.36951939e+00  8.46610860e+00  8.48101413e+00  8.56404384e+00
  8.67008043e+00  8.83497596e+00  8.90267823e+00  8.98102798e+00
  8.99913424e+00  9.00389400e+00  9.05624125e+00  9.10126831e+00
  9.21411241e+00  9.28789884e+00  9.50505991e+00  9.61075419e+00
  9.85771086e+00  9.89865513e+00  9.94924301e+00  9.98384139e+00
  1.00336294e+01  1.01034559e+01  1.01207654e+01  1.02121725e+01
  1.02483425e+01  1.02569481e+01  1.03854839e+01  1.04402778e+01
  1.06819278e+01  1.07407085e+01  1.12639569e+01  1.13506340e+01
  1.15754261e+01  1.17227717e+01  1.19510541e+01  1.21109447e+01
  1.21670954e+01  1.23520794e+01  1.23829920e+01  1.25605162e+01
  1.27846569e+01  1.30091034e+01  1.37113024e+01  1.40911485e+01
  1.43007143e+01  1.62551291e+01  2.02254312e+01  3.23575562e+01]
nelec by numeric integration = 14.00001994373315
    CPU time for vxc     43.08 sec, wall time      0.35 sec
    CPU time for df-vj      8.00 sec, wall time      0.06 sec
E1 = -87.409575327314  Ecoul = 44.637733473868984  Exc = -6.531228553685704
cycle= 5 E= -23.9661097615862  delta_E= -0.000595  |g|= 0.00706  |ddm|= 0.0709
    CPU time for cycle= 5    117.79 sec, wall time      0.93 sec
  HOMO = -0.23331564658479  LUMO = -0.00597541558221593
  mo_energy =
[-9.46446548e-01 -6.24171932e-01 -4.64381044e-01 -3.94723407e-01
 -3.84389009e-01 -2.94024467e-01 -2.33315647e-01 -5.97541558e-03
  3.12509813e-02  7.11657906e-02  7.33919544e-02  1.05037603e-01
  1.63920983e-01  1.78894764e-01  2.52329760e-01  2.68058472e-01
  2.83209103e-01  3.07980840e-01  3.20091128e-01  3.31528898e-01
  3.37441554e-01  3.67868667e-01  4.05404845e-01  4.47289212e-01
  4.78561387e-01  4.90750082e-01  6.12540090e-01  6.48174205e-01
  6.90272617e-01  6.98332499e-01  7.20933048e-01  7.56655970e-01
  7.69058928e-01  7.84308531e-01  8.80872764e-01  8.88206281e-01
  9.24912495e-01  9.39513641e-01  9.56936553e-01  9.78295529e-01
  1.00007061e+00  1.08848769e+00  1.09561404e+00  1.13488117e+00
  1.19713719e+00  1.30554125e+00  1.30877352e+00  1.36435866e+00
  1.39735847e+00  1.55044625e+00  1.63056770e+00  1.63689147e+00
  1.68471308e+00  1.75242897e+00  1.77094613e+00  1.77321650e+00
  1.78985177e+00  1.81987434e+00  1.83067754e+00  1.84023822e+00
  1.91151399e+00  1.98734332e+00  1.99945812e+00  2.04895994e+00
  2.10281922e+00  2.14876123e+00  2.17811647e+00  2.18007205e+00
  2.21795891e+00  2.25301322e+00  2.28864776e+00  2.33146759e+00
  2.35073458e+00  2.37103425e+00  2.38712344e+00  2.45079771e+00
  2.50530290e+00  2.55759367e+00  2.56849691e+00  2.60821718e+00
  2.68957746e+00  2.69688028e+00  2.78993953e+00  2.79712697e+00
  2.83259350e+00  2.87803932e+00  2.94050663e+00  3.01835952e+00
  3.07260965e+00  3.07830699e+00  3.14328625e+00  3.15457866e+00
  3.18741670e+00  3.22587838e+00  3.27624008e+00  3.33944179e+00
  3.40366103e+00  3.50204882e+00  3.61140416e+00  3.73313561e+00
  3.77947382e+00  3.80345753e+00  3.82755596e+00  3.87042913e+00
  3.97725993e+00  3.99107765e+00  4.03413988e+00  4.11661184e+00
  4.21499578e+00  4.35099649e+00  4.51879322e+00  4.58283538e+00
  4.77772796e+00  5.10236447e+00  5.15237902e+00  5.19133300e+00
  5.25793095e+00  5.33411250e+00  5.36615849e+00  5.40120036e+00
  5.43039165e+00  5.54528847e+00  5.61911921e+00  5.77794124e+00
  5.78171273e+00  5.79957075e+00  5.86236667e+00  5.90430081e+00
  5.93681468e+00  5.98917729e+00  6.03382405e+00  6.04293348e+00
  6.11570069e+00  6.12663465e+00  6.17006116e+00  6.18338445e+00
  6.24856312e+00  6.24904076e+00  6.28883213e+00  6.52864054e+00
  6.53643972e+00  6.56488207e+00  6.63919071e+00  6.67399595e+00
  6.69321266e+00  6.70918746e+00  6.86543296e+00  7.02253776e+00
  7.04258666e+00  7.05541165e+00  7.09364481e+00  7.28143128e+00
  7.30344827e+00  7.35670471e+00  7.36483645e+00  7.39584805e+00
  7.41214997e+00  7.47206772e+00  7.48431801e+00  7.54856219e+00
  7.55549775e+00  7.59604686e+00  7.61013165e+00  7.62678822e+00
  7.66486072e+00  7.67181581e+00  7.71685850e+00  7.72491139e+00
  7.80340826e+00  7.84989475e+00  7.95450406e+00  8.02532885e+00
  8.06327842e+00  8.13023477e+00  8.15242560e+00  8.24631819e+00
  8.26014186e+00  8.32032283e+00  8.32929799e+00  8.33698908e+00
  8.36955809e+00  8.46595316e+00  8.48112542e+00  8.56410726e+00
  8.67008612e+00  8.83505143e+00  8.90270064e+00  8.98099008e+00
  8.99913704e+00  9.00382820e+00  9.05627748e+00  9.10117629e+00
  9.21401157e+00  9.28778444e+00  9.50503329e+00  9.61066613e+00
  9.85770636e+00  9.89869828e+00  9.94909660e+00  9.98373765e+00
  1.00336230e+01  1.01032664e+01  1.01207540e+01  1.02121250e+01
  1.02483276e+01  1.02569185e+01  1.03854367e+01  1.04401757e+01
  1.06820392e+01  1.07407724e+01  1.12639330e+01  1.13507862e+01
  1.15757016e+01  1.17230519e+01  1.19515213e+01  1.21112785e+01
  1.21674318e+01  1.23521480e+01  1.23828720e+01  1.25609507e+01
  1.27849881e+01  1.30093862e+01  1.37114343e+01  1.40913727e+01
  1.43010231e+01  1.62553502e+01  2.02247290e+01  3.23579493e+01]
nelec by numeric integration = 14.000019970844534
    CPU time for vxc     35.06 sec, wall time      0.28 sec
    CPU time for df-vj      8.47 sec, wall time      0.07 sec
E1 = -87.40978684735333  Ecoul = 44.63719133847348  Exc = -6.530484940303785
cycle= 6 E= -23.9661198036391  delta_E= -1e-05  |g|= 0.000589  |ddm|= 0.0072
    CPU time for cycle= 6    117.57 sec, wall time      1.02 sec
  HOMO = -0.233379106257069  LUMO = -0.00606702137202557
  mo_energy =
[-9.46535076e-01 -6.24285469e-01 -4.64472767e-01 -3.94800058e-01
 -3.84482532e-01 -2.94104304e-01 -2.33379106e-01 -6.06702137e-03
  3.11673729e-02  7.11009145e-02  7.33135557e-02  1.04957405e-01
  1.63853010e-01  1.78821415e-01  2.52240582e-01  2.67965912e-01
  2.83116506e-01  3.07900710e-01  3.20009760e-01  3.31461604e-01
  3.37372575e-01  3.67779901e-01  4.05323787e-01  4.47200855e-01
  4.78466919e-01  4.90632003e-01  6.12465035e-01  6.48092978e-01
  6.90197404e-01  6.98237492e-01  7.20847184e-01  7.56569493e-01
  7.68968801e-01  7.84225582e-01  8.80788626e-01  8.88090826e-01
  9.24823840e-01  9.39416913e-01  9.56853230e-01  9.78190904e-01
  9.99987404e-01  1.08840707e+00  1.09551425e+00  1.13479663e+00
  1.19702557e+00  1.30543563e+00  1.30868386e+00  1.36425954e+00
  1.39727029e+00  1.55035293e+00  1.63048363e+00  1.63679953e+00
  1.68462039e+00  1.75232896e+00  1.77085332e+00  1.77312612e+00
  1.78977574e+00  1.81978841e+00  1.83057856e+00  1.84014660e+00
  1.91142189e+00  1.98725345e+00  1.99935206e+00  2.04886065e+00
  2.10271123e+00  2.14865719e+00  2.17802265e+00  2.17997890e+00
  2.21786810e+00  2.25292763e+00  2.28854236e+00  2.33137496e+00
  2.35063212e+00  2.37093630e+00  2.38703190e+00  2.45071188e+00
  2.50521454e+00  2.55749702e+00  2.56836800e+00  2.60809867e+00
  2.68947289e+00  2.69679105e+00  2.78985216e+00  2.79702278e+00
  2.83250680e+00  2.87793127e+00  2.94040601e+00  3.01825538e+00
  3.07251844e+00  3.07822247e+00  3.14320107e+00  3.15447539e+00
  3.18730899e+00  3.22578798e+00  3.27613879e+00  3.33935070e+00
  3.40355268e+00  3.50195103e+00  3.61131193e+00  3.73303943e+00
  3.77939361e+00  3.80337117e+00  3.82745081e+00  3.87033412e+00
  3.97718112e+00  3.99097908e+00  4.03405153e+00  4.11653493e+00
  4.21489368e+00  4.35090165e+00  4.51867669e+00  4.58272812e+00
  4.77761134e+00  5.10228708e+00  5.15227127e+00  5.19123745e+00
  5.25782896e+00  5.33401611e+00  5.36605074e+00  5.40108947e+00
  5.43028913e+00  5.54519335e+00  5.61900715e+00  5.77785293e+00
  5.78161202e+00  5.79947729e+00  5.86224863e+00  5.90419253e+00
  5.93672335e+00  5.98907812e+00  6.03372069e+00  6.04283735e+00
  6.11558943e+00  6.12655906e+00  6.16996663e+00  6.18327690e+00
  6.24846938e+00  6.24895478e+00  6.28871930e+00  6.52854450e+00
  6.53633567e+00  6.56482008e+00  6.63911637e+00  6.67390214e+00
  6.69313027e+00  6.70905535e+00  6.86530899e+00  7.02244393e+00
  7.04247483e+00  7.05532132e+00  7.09353185e+00  7.28133157e+00
  7.30335381e+00  7.35659900e+00  7.36472990e+00  7.39572955e+00
  7.41204486e+00  7.47195839e+00  7.48422616e+00  7.54843569e+00
  7.55538439e+00  7.59594639e+00  7.61002962e+00  7.62667903e+00
  7.66475113e+00  7.67174184e+00  7.71676387e+00  7.72480250e+00
  7.80330144e+00  7.84979941e+00  7.95441442e+00  8.02522325e+00
  8.06316859e+00  8.13012264e+00  8.15232389e+00  8.24622110e+00
  8.26005228e+00  8.32021664e+00  8.32921139e+00  8.33689781e+00
  8.36947022e+00  8.46583136e+00  8.48100623e+00  8.56401619e+00
  8.67000702e+00  8.83492730e+00  8.90257449e+00  8.98086164e+00
  8.99902946e+00  9.00374304e+00  9.05617803e+00  9.10109672e+00
  9.21392096e+00  9.28768077e+00  9.50494930e+00  9.61058595e+00
  9.85760171e+00  9.89860589e+00  9.94900251e+00  9.98363970e+00
  1.00335378e+01  1.01031570e+01  1.01206687e+01  1.02120313e+01
  1.02482256e+01  1.02568177e+01  1.03853366e+01  1.04400803e+01
  1.06819668e+01  1.07407015e+01  1.12638207e+01  1.13506880e+01
  1.15756590e+01  1.17229975e+01  1.19514630e+01  1.21112192e+01
  1.21673746e+01  1.23520721e+01  1.23827715e+01  1.25608887e+01
  1.27850115e+01  1.30093841e+01  1.37113665e+01  1.40913369e+01
  1.43009923e+01  1.62552737e+01  2.02246463e+01  3.23580862e+01]
nelec by numeric integration = 14.000019969562148
    CPU time for vxc     38.24 sec, wall time      0.31 sec
    CPU time for df-vj      7.84 sec, wall time      0.06 sec
E1 = -87.40901885270075  Ecoul = 44.63629033180159  Exc = -6.530351963115931
cycle= 7 E= -23.9661198384706  delta_E= -3.48e-08  |g|= 0.00014  |ddm|= 0.00094
    CPU time for cycle= 7    117.09 sec, wall time      0.95 sec
  HOMO = -0.233394567356162  LUMO = -0.0060705729607638
  mo_energy =
[-9.46545712e-01 -6.24291612e-01 -4.64486648e-01 -3.94813310e-01
 -3.84488624e-01 -2.94118415e-01 -2.33394567e-01 -6.07057296e-03
  3.11635081e-02  7.10938307e-02  7.33101958e-02  1.04950259e-01
  1.63846946e-01  1.78817432e-01  2.52233757e-01  2.67959880e-01
  2.83111998e-01  3.07893392e-01  3.20008507e-01  3.31452437e-01
  3.37364671e-01  3.67777441e-01  4.05319549e-01  4.47193418e-01
  4.78460157e-01  4.90629923e-01  6.12458044e-01  6.48088091e-01
  6.90191994e-01  6.98233385e-01  7.20839638e-01  7.56563539e-01
  7.68961937e-01  7.84220289e-01  8.80781781e-01  8.88086399e-01
  9.24816026e-01  9.39411705e-01  9.56846430e-01  9.78188357e-01
  9.99980006e-01  1.08839711e+00  1.09551457e+00  1.13478717e+00
  1.19702179e+00  1.30542851e+00  1.30867524e+00  1.36425357e+00
  1.39726040e+00  1.55034623e+00  1.63047819e+00  1.63679111e+00
  1.68461057e+00  1.75232485e+00  1.77084509e+00  1.77312025e+00
  1.78976764e+00  1.81978114e+00  1.83057236e+00  1.84013763e+00
  1.91141292e+00  1.98724649e+00  1.99934629e+00  2.04885587e+00
  2.10270662e+00  2.14865251e+00  2.17801693e+00  2.17996982e+00
  2.21785928e+00  2.25291909e+00  2.28853949e+00  2.33136919e+00
  2.35062842e+00  2.37093478e+00  2.38702534e+00  2.45070515e+00
  2.50520586e+00  2.55749033e+00  2.56836605e+00  2.60809360e+00
  2.68946823e+00  2.69678278e+00  2.78984149e+00  2.79701638e+00
  2.83249994e+00  2.87792739e+00  2.94040026e+00  3.01825019e+00
  3.07251120e+00  3.07821261e+00  3.14319015e+00  3.15447209e+00
  3.18730192e+00  3.22578079e+00  3.27613179e+00  3.33933922e+00
  3.40354761e+00  3.50194354e+00  3.61130307e+00  3.73303224e+00
  3.77938293e+00  3.80335950e+00  3.82744403e+00  3.87032475e+00
  3.97716414e+00  3.99096668e+00  4.03404030e+00  4.11651869e+00
  4.21488213e+00  4.35088971e+00  4.51866822e+00  4.58271929e+00
  4.77760200e+00  5.10227616e+00  5.15226537e+00  5.19122743e+00
  5.25782136e+00  5.33400777e+00  5.36604492e+00  5.40108127e+00
  5.43028124e+00  5.54518486e+00  5.61900244e+00  5.77784169e+00
  5.78160724e+00  5.79946759e+00  5.86224813e+00  5.90419080e+00
  5.93671510e+00  5.98906984e+00  6.03371127e+00  6.04282842e+00
  6.11558813e+00  6.12654625e+00  6.16995935e+00  6.18326939e+00
  6.24846245e+00  6.24894472e+00  6.28871137e+00  6.52853800e+00
  6.53632946e+00  6.56480714e+00  6.63910356e+00  6.67389321e+00
  6.69311837e+00  6.70905337e+00  6.86530623e+00  7.02243649e+00
  7.04247181e+00  7.05531431e+00  7.09352929e+00  7.28132352e+00
  7.30334417e+00  7.35659641e+00  7.36472364e+00  7.39573028e+00
  7.41203821e+00  7.47195420e+00  7.48421787e+00  7.54843628e+00
  7.55538385e+00  7.59594013e+00  7.61002488e+00  7.62667703e+00
  7.66475154e+00  7.67172827e+00  7.71675698e+00  7.72480155e+00
  7.80329578e+00  7.84979150e+00  7.95440520e+00  8.02521915e+00
  8.06316457e+00  8.13011865e+00  8.15232144e+00  8.24621289e+00
  8.26003914e+00  8.32021472e+00  8.32920326e+00  8.33689013e+00
  8.36946193e+00  8.46583047e+00  8.48099927e+00  8.56400210e+00
  8.66999214e+00  8.83492464e+00  8.90257090e+00  8.98086482e+00
  8.99902670e+00  9.00373424e+00  9.05617002e+00  9.10108470e+00
  9.21390991e+00  9.28767375e+00  9.50493562e+00  9.61056975e+00
  9.85759120e+00  9.89859275e+00  9.94899630e+00  9.98363348e+00
  1.00335230e+01  1.01031566e+01  1.01206546e+01  1.02120213e+01
  1.02482149e+01  1.02568107e+01  1.03853266e+01  1.04400715e+01
  1.06819484e+01  1.07406850e+01  1.12638137e+01  1.13506765e+01
  1.15756382e+01  1.17229804e+01  1.19514447e+01  1.21112017e+01
  1.21673565e+01  1.23520554e+01  1.23827694e+01  1.25608709e+01
  1.27849871e+01  1.30093632e+01  1.37113555e+01  1.40913189e+01
  1.43009733e+01  1.62552615e+01  2.02246406e+01  3.23580559e+01]
nelec by numeric integration = 14.000019969345356
    CPU time for vxc     47.51 sec, wall time      0.38 sec
    CPU time for df-vj      5.58 sec, wall time      0.04 sec
E1 = -87.40920785987232  Ecoul = 44.63651346371907  Exc = -6.530386091428839
cycle= 8 E= -23.9661198420376  delta_E= -3.57e-09  |g|= 2.04e-05  |ddm|= 0.000184
    CPU time for cycle= 8    128.62 sec, wall time      1.23 sec
  HOMO = -0.23339689201548  LUMO = -0.00607139737892674
  mo_energy =
[-9.46548514e-01 -6.24293418e-01 -4.64487817e-01 -3.94813961e-01
 -3.84491414e-01 -2.94120572e-01 -2.33396892e-01 -6.07139738e-03
  3.11629450e-02  7.10938705e-02  7.33094926e-02  1.04949560e-01
  1.63846775e-01  1.78816793e-01  2.52232546e-01  2.67958596e-01
  2.83111037e-01  3.07892381e-01  3.20007593e-01  3.31452185e-01
  3.37364548e-01  3.67776461e-01  4.05318304e-01  4.47192881e-01
  4.78459639e-01  4.90628629e-01  6.12457854e-01  6.48087435e-01
  6.90191385e-01  6.98232617e-01  7.20839279e-01  7.56563186e-01
  7.68961351e-01  7.84219741e-01  8.80781219e-01  8.88085209e-01
  9.24815295e-01  9.39410690e-01  9.56845932e-01  9.78187144e-01
  9.99979112e-01  1.08839711e+00  1.09551270e+00  1.13478714e+00
  1.19702096e+00  1.30542691e+00  1.30867376e+00  1.36425202e+00
  1.39725892e+00  1.55034489e+00  1.63047717e+00  1.63679013e+00
  1.68461037e+00  1.75232381e+00  1.77084438e+00  1.77311905e+00
  1.78976624e+00  1.81977962e+00  1.83057137e+00  1.84013648e+00
  1.91141249e+00  1.98724579e+00  1.99934502e+00  2.04885516e+00
  2.10270580e+00  2.14865195e+00  2.17801597e+00  2.17996928e+00
  2.21785866e+00  2.25291882e+00  2.28853836e+00  2.33136847e+00
  2.35062742e+00  2.37093364e+00  2.38702392e+00  2.45070405e+00
  2.50520528e+00  2.55748972e+00  2.56836437e+00  2.60809258e+00
  2.68946711e+00  2.69678192e+00  2.78984122e+00  2.79701511e+00
  2.83249941e+00  2.87792625e+00  2.94039924e+00  3.01824869e+00
  3.07251040e+00  3.07821239e+00  3.14319009e+00  3.15447081e+00
  3.18730074e+00  3.22577993e+00  3.27613084e+00  3.33933888e+00
  3.40354578e+00  3.50194194e+00  3.61130225e+00  3.73303057e+00
  3.77938248e+00  3.80335792e+00  3.82744229e+00  3.87032293e+00
  3.97716224e+00  3.99096492e+00  4.03403869e+00  4.11651595e+00
  4.21487993e+00  4.35088686e+00  4.51866592e+00  4.58271738e+00
  4.77759970e+00  5.10227523e+00  5.15226362e+00  5.19122664e+00
  5.25781990e+00  5.33400627e+00  5.36604289e+00  5.40108058e+00
  5.43027985e+00  5.54518357e+00  5.61900116e+00  5.77784139e+00
  5.78160572e+00  5.79946770e+00  5.86224631e+00  5.90418887e+00
  5.93671490e+00  5.98906901e+00  6.03371058e+00  6.04282770e+00
  6.11558647e+00  6.12654630e+00  6.16995830e+00  6.18326823e+00
  6.24846116e+00  6.24894392e+00  6.28871040e+00  6.52853644e+00
  6.53632814e+00  6.56480520e+00  6.63910221e+00  6.67389146e+00
  6.69311629e+00  6.70905143e+00  6.86530435e+00  7.02243507e+00
  7.04246971e+00  7.05531319e+00  7.09352753e+00  7.28132312e+00
  7.30334397e+00  7.35659468e+00  7.36472311e+00  7.39572873e+00
  7.41203719e+00  7.47195305e+00  7.48421747e+00  7.54843435e+00
  7.55538176e+00  7.59593946e+00  7.61002324e+00  7.62667590e+00
  7.66474966e+00  7.67172865e+00  7.71675628e+00  7.72479984e+00
  7.80329516e+00  7.84979111e+00  7.95440446e+00  8.02521845e+00
  8.06316346e+00  8.13011751e+00  8.15231990e+00  8.24621191e+00
  8.26003893e+00  8.32021331e+00  8.32920291e+00  8.33688961e+00
  8.36946162e+00  8.46582822e+00  8.48099759e+00  8.56400073e+00
  8.66999177e+00  8.83492333e+00  8.90256845e+00  8.98086234e+00
  8.99902508e+00  9.00373241e+00  9.05616935e+00  9.10108378e+00
  9.21390894e+00  9.28767176e+00  9.50493429e+00  9.61056750e+00
  9.85758964e+00  9.89859229e+00  9.94899490e+00  9.98363223e+00
  1.00335225e+01  1.01031540e+01  1.01206547e+01  1.02120195e+01
  1.02482142e+01  1.02568093e+01  1.03853259e+01  1.04400706e+01
  1.06819461e+01  1.07406828e+01  1.12638109e+01  1.13506735e+01
  1.15756348e+01  1.17229767e+01  1.19514408e+01  1.21111986e+01
  1.21673532e+01  1.23520552e+01  1.23827666e+01  1.25608674e+01
  1.27849828e+01  1.30093591e+01  1.37113518e+01  1.40913153e+01
  1.43009697e+01  1.62552582e+01  2.02246388e+01  3.23580505e+01]
nelec by numeric integration = 14.000019969237094
    CPU time for vxc     43.14 sec, wall time      0.34 sec
    CPU time for df-vj      8.05 sec, wall time      0.06 sec
E1 = -87.40924260154863  Ecoul = 44.6365543685016  Exc = -6.530392254622333
cycle= 9 E= -23.9661198421249  delta_E= -8.73e-11  |g|= 2.16e-06  |ddm|= 2.92e-05
    CPU time for cycle= 9    125.27 sec, wall time      1.16 sec
  HOMO = -0.233397492329405  LUMO = -0.00607156792365472
  mo_energy =
[-9.46549200e-01 -6.24293659e-01 -4.64488278e-01 -3.94814258e-01
 -3.84491638e-01 -2.94120923e-01 -2.33397492e-01 -6.07156792e-03
  3.11628255e-02  7.10937924e-02  7.33094158e-02  1.04949376e-01
  1.63846693e-01  1.78816741e-01  2.52232378e-01  2.67958379e-01
  2.83110936e-01  3.07892185e-01  3.20007557e-01  3.31452048e-01
  3.37364367e-01  3.67776385e-01  4.05318159e-01  4.47192739e-01
  4.78459513e-01  4.90628506e-01  6.12457766e-01  6.48087351e-01
  6.90191302e-01  6.98232531e-01  7.20839110e-01  7.56563084e-01
  7.68961223e-01  7.84219641e-01  8.80781075e-01  8.88085045e-01
  9.24815095e-01  9.39410504e-01  9.56845812e-01  9.78187028e-01
  9.99978973e-01  1.08839696e+00  1.09551266e+00  1.13478697e+00
  1.19702081e+00  1.30542669e+00  1.30867354e+00  1.36425180e+00
  1.39725867e+00  1.55034476e+00  1.63047706e+00  1.63678989e+00
  1.68461016e+00  1.75232371e+00  1.77084426e+00  1.77311894e+00
  1.78976599e+00  1.81977943e+00  1.83057122e+00  1.84013624e+00
  1.91141230e+00  1.98724561e+00  1.99934492e+00  2.04885506e+00
  2.10270562e+00  2.14865179e+00  2.17801581e+00  2.17996909e+00
  2.21785847e+00  2.25291866e+00  2.28853825e+00  2.33136835e+00
  2.35062731e+00  2.37093359e+00  2.38702367e+00  2.45070387e+00
  2.50520509e+00  2.55748956e+00  2.56836417e+00  2.60809241e+00
  2.68946697e+00  2.69678177e+00  2.78984103e+00  2.79701489e+00
  2.83249929e+00  2.87792611e+00  2.94039907e+00  3.01824849e+00
  3.07251024e+00  3.07821222e+00  3.14318992e+00  3.15447070e+00
  3.18730050e+00  3.22577978e+00  3.27613064e+00  3.33933864e+00
  3.40354551e+00  3.50194171e+00  3.61130201e+00  3.73303028e+00
  3.77938231e+00  3.80335758e+00  3.82744199e+00  3.87032261e+00
  3.97716183e+00  3.99096459e+00  4.03403821e+00  4.11651547e+00
  4.21487964e+00  4.35088651e+00  4.51866553e+00  4.58271688e+00
  4.77759943e+00  5.10227508e+00  5.15226340e+00  5.19122643e+00
  5.25781968e+00  5.33400603e+00  5.36604278e+00  5.40108033e+00
  5.43027967e+00  5.54518342e+00  5.61900094e+00  5.77784120e+00
  5.78160561e+00  5.79946749e+00  5.86224617e+00  5.90418878e+00
  5.93671476e+00  5.98906880e+00  6.03371037e+00  6.04282747e+00
  6.11558638e+00  6.12654609e+00  6.16995815e+00  6.18326802e+00
  6.24846102e+00  6.24894370e+00  6.28871019e+00  6.52853627e+00
  6.53632791e+00  6.56480468e+00  6.63910182e+00  6.67389116e+00
  6.69311590e+00  6.70905117e+00  6.86530411e+00  7.02243490e+00
  7.04246938e+00  7.05531308e+00  7.09352735e+00  7.28132292e+00
  7.30334381e+00  7.35659458e+00  7.36472292e+00  7.39572860e+00
  7.41203688e+00  7.47195288e+00  7.48421726e+00  7.54843414e+00
  7.55538146e+00  7.59593923e+00  7.61002302e+00  7.62667574e+00
  7.66474961e+00  7.67172844e+00  7.71675611e+00  7.72479970e+00
  7.80329496e+00  7.84979094e+00  7.95440423e+00  8.02521830e+00
  8.06316329e+00  8.13011731e+00  8.15231983e+00  8.24621170e+00
  8.26003867e+00  8.32021324e+00  8.32920277e+00  8.33688948e+00
  8.36946149e+00  8.46582801e+00  8.48099726e+00  8.56400024e+00
  8.66999140e+00  8.83492305e+00  8.90256806e+00  8.98086228e+00
  8.99902498e+00  9.00373204e+00  9.05616912e+00  9.10108348e+00
  9.21390859e+00  9.28767129e+00  9.50493387e+00  9.61056697e+00
  9.85758920e+00  9.89859200e+00  9.94899475e+00  9.98363208e+00
  1.00335221e+01  1.01031539e+01  1.01206545e+01  1.02120191e+01
  1.02482139e+01  1.02568092e+01  1.03853256e+01  1.04400704e+01
  1.06819454e+01  1.07406823e+01  1.12638103e+01  1.13506730e+01
  1.15756339e+01  1.17229759e+01  1.19514400e+01  1.21111979e+01
  1.21673526e+01  1.23520548e+01  1.23827664e+01  1.25608667e+01
  1.27849817e+01  1.30093581e+01  1.37113509e+01  1.40913144e+01
  1.43009688e+01  1.62552574e+01  2.02246385e+01  3.23580490e+01]
nelec by numeric integration = 14.000019969222883
    CPU time for vxc     37.16 sec, wall time      0.30 sec
    CPU time for df-vj      7.98 sec, wall time      0.06 sec
E1 = -87.40925186243096  Ecoul = 44.63656533778677  Exc = -6.530393963024039
Extra cycle  E= -23.9661198421237  delta_E= 1.13e-12  |g|= 3.3e-06  |ddm|= 5.98e-06
    CPU time for scf_cycle   1471.22 sec, wall time     12.46 sec
    CPU time for SCF   1471.42 sec, wall time     12.46 sec
converged SCF energy = -23.9661198421237
