#INFO: **** input file is /home/nkousuke/lustre/toBeSync/turboRVB/05turbo-genius-development/turbogenius_paper/04data/sanity_checks/03pyscf_HF_turbo_VMC_via_trexio/00open_boundary/results/Ti/pyscf-HF-workflow/run.py ****

from pyscf_wrapper import Pyscf_wrapper

# input variables
pyscf_chkfile="pyscf.chk"
structure_file="Ti.xyz"

# input variables
omp_num_threads=128
charge=0
spin=2
basis="ccecp-ccpvtz"
ecp="ccecp"
scf_method="HF"
dft_xc="NA"
solver_newton=False
MP2_flag=False
CCSD_flag=False
pyscf_output="out.pyscf"
twist_average=False
exp_to_discard=0.0
kpt=[0.0, 0.0, 0.0]
kpt_grid=[1, 1, 1]
smearing_method="fermi"
smearing_sigma=0.0

pyscf_calc=Pyscf_wrapper(
                        structure_file=structure_file,
                        chkfile=pyscf_chkfile,
                        )

pyscf_calc.run_pyscf(
                  omp_num_threads=omp_num_threads,
                  charge=charge,
                  spin=spin,
                  basis=basis,
                  ecp=ecp,
                  scf_method=scf_method,
                  dft_xc=dft_xc,
                  solver_newton=solver_newton,
                  MP2_flag=MP2_flag,
                  CCSD_flag=CCSD_flag,
                  pyscf_output=pyscf_output,
                  twist_average=twist_average,
                  exp_to_discard=exp_to_discard,
                  kpt=kpt,
                  kpt_grid=kpt_grid,
                  smearing_method=smearing_method,
                  smearing_sigma=smearing_sigma
                  )
                #INFO: ******************** input file end ********************


System: uname_result(system='Linux', node='spcc-200', release='5.4.0-66-generic', version='#74-Ubuntu SMP Wed Jan 27 22:54:38 UTC 2021', machine='x86_64', processor='x86_64')  Threads 128
Python 3.7.3 (default, Mar 27 2019, 22:11:17) 
[GCC 7.3.0]
numpy 1.20.1  scipy 1.7.3
Date: Mon Dec 19 18:10:03 2022
PySCF version 2.0.1
PySCF path  /home/nkousuke/application/anaconda3/lib/python3.7/site-packages/pyscf

[CONFIG] conf_file /home/nkousuke/.pyscf_conf.py
[INPUT] verbose = 5
[INPUT] max_memory = 507487.23828125 
[INPUT] num. atoms = 1
[INPUT] num. electrons = 12
[INPUT] charge = 0
[INPUT] spin (= nelec alpha-beta = 2S) = 2
[INPUT] symmetry False subgroup None
[INPUT] Mole.unit = A
[INPUT]  1 Ti     0.000000000000   0.000000000000   0.000000000000 AA    0.000000000000   0.000000000000   0.000000000000 Bohr
[INPUT] ---------------- BASIS SET ---------------- 
[INPUT] l, kappa, [nprim/nctr], expnt,             c_1 c_2 ...
[INPUT] Ti
[INPUT] 0    0    [13   /1   ]  68.910511         0.000616
                                33.7207           -0.007501
                                18.159676         0.012218
                                12.419305         0.144739
                                7.532195          -0.328621
                                3.504444          -0.317517
                                1.910727          0.357422
                                0.88884           0.671406
                                0.447198          0.282226
                                0.281192          0.038673
                                0.100258          0.004559
                                0.046525          -0.001565
                                0.02184           0.000398
[INPUT] 0    0    [13   /1   ]  68.910511         -0.000156
                                33.7207           0.001966
                                18.159676         -0.003994
                                12.419305         -0.036377
                                7.532195          0.088593
                                3.504444          0.08563
                                1.910727          -0.105993
                                0.88884           -0.237421
                                0.447198          -0.235359
                                0.281192          -0.01296
                                0.100258          0.433582
                                0.046525          0.577873
                                0.02184           0.16436
[INPUT] 0    0    [13   /1   ]  68.910511         0.000635
                                33.7207           -0.006468
                                18.159676         0.023444
                                12.419305         0.038921
                                7.532195          -0.14118
                                3.504444          -0.214765
                                1.910727          0.320151
                                0.88884           0.451062
                                0.447198          0.855191
                                0.281192          -1.209224
                                0.100258          -1.319481
                                0.046525          0.866517
                                0.02184           0.618916
[INPUT] 0    0    [13   /1   ]  68.910511         -0.001178
                                33.7207           0.011877
                                18.159676         -0.04724
                                12.419305         -0.050922
                                7.532195          0.237746
                                3.504444          0.403185
                                1.910727          -0.790961
                                0.88884           -1.102276
                                0.447198          0.209446
                                0.281192          2.527352
                                0.100258          -1.789041
                                0.046525          -0.867842
                                0.02184           1.427395
[INPUT] 0    0    [1    /1   ]  0.02184              1
[INPUT] 1    0    [13   /1   ]  84.914002         9.3e-05
                                42.855051         -0.000836
                                21.700131         0.008679
                                12.21469          -0.011178
                                8.319164          -0.077767
                                4.091071          -0.006113
                                2.286543          0.271828
                                1.15981           0.459585
                                0.591343          0.3159
                                0.312862          0.071683
                                0.184828          0.010541
                                0.06859           4.5e-05
                                0.026791          -0.000837
[INPUT] 1    0    [13   /1   ]  84.914002         2e-05
                                42.855051         -4.9e-05
                                21.700131         -0.000761
                                12.21469          -0.000575
                                8.319164          0.018284
                                4.091071          -0.005943
                                2.286543          -0.043212
                                1.15981           -0.112513
                                0.591343          -0.052073
                                0.312862          -0.092263
                                0.184828          0.243946
                                0.06859           0.413101
                                0.026791          0.543985
[INPUT] 1    0    [13   /1   ]  84.914002         1.9e-05
                                42.855051         0.000138
                                21.700131         -0.004622
                                12.21469          0.004465
                                8.319164          0.06576
                                4.091071          -0.018927
                                2.286543          -0.222524
                                1.15981           -0.52389
                                0.591343          -0.071277
                                0.312862          0.812712
                                0.184828          0.625498
                                0.06859           -0.812189
                                0.026791          -0.185796
[INPUT] 1    0    [13   /1   ]  84.914002         -0.000257
                                42.855051         0.001725
                                21.700131         -0.012646
                                12.21469          0.029062
                                8.319164          0.058979
                                4.091071          0.030806
                                2.286543          -0.524373
                                1.15981           -0.720968
                                0.591343          1.023204
                                0.312862          1.973874
                                0.184828          -2.805092
                                0.06859           0.607954
                                0.026791          0.447653
[INPUT] 1    0    [1    /1   ]  0.026791             1
[INPUT] 2    0    [11   /1   ]  77.434559         2.2e-05
                                27.708477         0.004218
                                12.914284         0.030087
                                6.062674          0.084821
                                2.863898          0.17111
                                1.386559          0.247451
                                0.677058          0.27731
                                0.329864          0.261077
                                0.159474          0.190336
                                0.076174          0.119385
                                0.02857           0.031297
[INPUT] 2    0    [11   /1   ]  77.434559         -2.5e-05
                                27.708477         -0.004311
                                12.914284         -0.030913
                                6.062674          -0.088049
                                2.863898          -0.17833
                                1.386559          -0.234335
                                0.677058          -0.195775
                                0.329864          0.065872
                                0.159474          0.330536
                                0.076174          0.461229
                                0.02857           0.184273
[INPUT] 2    0    [11   /1   ]  77.434559         1e-05
                                27.708477         0.006187
                                12.914284         0.04263
                                6.062674          0.127524
                                2.863898          0.248289
                                1.386559          0.259761
                                0.677058          -0.070794
                                0.329864          -0.519396
                                0.159474          -0.373658
                                0.076174          0.455067
                                0.02857           0.489586
[INPUT] 2    0    [1    /1   ]  0.02857              1
[INPUT] 3    0    [1    /1   ]  0.291553             1
[INPUT] 3    0    [1    /1   ]  1.269061             1
[INPUT] 4    0    [1    /1   ]  0.707265             1

nuclear repulsion = 0
number of shells = 17
number of NR pGTOs = 405
number of NR cGTOs = 63
basis = ccecp-ccpvtz
ecp = ccecp
CPU time:         7.49


******** <class 'pyscf.scf.rohf.ROHF'> ********
method = ROHF-RHF
initial guess = minao
damping factor = 0
level_shift factor = 0
DIIS = <class 'pyscf.scf.diis.CDIIS'>
diis_start_cycle = 1
diis_space = 8
SCF conv_tol = 1e-09
SCF conv_tol_grad = None
SCF max_cycles = 200
direct_scf = True
direct_scf_tol = 1e-13
chkfile to save SCF result = pyscf.chk
max_memory 507487 MB (current use 107 MB)
num. doubly occ = 5  num. singly occ = 2
Set gradient conv threshold to 3.16228e-05
E1 = -96.75420755451744  Ecoul = 39.64781217555509
init E= -57.1063953789623
cond(S) = 447.11584419863414
    CPU time for initialize scf    220.53 sec, wall time      5.37 sec

WARN: HOMO 0.0219839135312553 >= LUMO 0.0219839135312565

                  Roothaan           | alpha              | beta
  Highest 2-occ = -0.234018237475499 |   -0.2340182374755 |   -0.2340182374755
  Lowest 0-occ =  0.0219839135312565 | 0.0219839135312555 | 0.0219839135312555
  1-occ =         0.0219839135312549 | 0.0219839135312553 | 0.0219839135312553
  1-occ =         0.0219839135312553 | 0.0219839135312555 | 0.0219839135312555
  Roothaan mo_energy =
[-2.97560302 -1.85650721 -1.85650721 -1.85650721 -0.23401824  0.02198391
  0.02198391  0.02198391  0.02730365  0.02730365  0.02730365  0.02730365
  0.02730365  0.10123615  0.10123615  0.10123615  0.10123615  0.10123615
  0.12168443  0.14735256  0.14735256  0.14735256  0.3981941   0.3981941
  0.3981941   0.3981941   0.3981941   0.6246989   0.6246989   0.6246989
  0.73764968  0.97319066  0.97319066  0.97319066  0.97319066  0.97319066
  0.97319066  0.97319066  1.63117194  1.63117194  1.63117194  1.63117194
  1.63117194  2.30979846  2.30979846  2.30979846  2.71825472  3.13883485
  3.13883485  3.13883485  3.13883485  3.13883485  3.13883485  3.13883485
  3.13883485  3.13883485  3.78714621  3.78714621  3.78714621  3.78714621
  3.78714621  3.78714621  3.78714621]
E1 = -87.82126475174555  Ecoul = 31.04302642561674
cycle= 1 E= -56.7782383261288  delta_E= 0.328  |g|= 0.818  |ddm|= 1.12
    CPU time for cycle= 1     29.40 sec, wall time      0.23 sec
  HOMO = -0.627024317852985  LUMO = -0.623592524716851
                  Roothaan           | alpha              | beta
  Highest 2-occ =  -0.62822225964584 | -0.628998480724807 | -0.627446038566876
  Lowest 0-occ =  -0.623592524716851 | -0.625493270646912 | -0.621691778786788
  1-occ =         -0.627024317852991 | -0.628146238717391 | -0.625902396988591
  1-occ =         -0.627024317852985 | -0.628146238717387 | -0.625902396988586
  Roothaan mo_energy =
[-3.92203046 -2.75467858 -2.75215188 -2.75215188 -0.62822226 -0.62702432
 -0.62702432 -0.62359252 -0.62359252 -0.54829698 -0.23339355 -0.23339355
 -0.17421266  0.00832298  0.03728056  0.03790481  0.03790481  0.03979744
  0.03979744  0.04939206  0.05536727  0.05536727  0.1661756   0.16870139
  0.16870139  0.17612244  0.17612244  0.3519272   0.36250631  0.36250631
  0.43866991  0.61184721  0.61319484  0.61319484  0.6172601   0.6172601
  0.62412675  0.62412675  0.9908428   0.99288995  0.99288995  0.99921404
  0.99921404  1.6866504   1.69595876  1.69595876  2.27398844  2.57753068
  2.57815605  2.57815605  2.58003358  2.58003358  2.58316748  2.58316748
  2.58756492  2.58756492  2.99641024  2.99706855  2.99706855  2.99904752
  2.99904752  3.00235678  3.00235678]
E1 = -107.01755417241893  Ecoul = 50.783808375858314
cycle= 2 E= -56.2337457965606  delta_E= 0.544  |g|= 2.29  |ddm|= 2.65
    CPU time for cycle= 2     24.05 sec, wall time      0.19 sec

WARN: HOMO 0.0618935640508881 >= LUMO -0.346306903950458

                  Roothaan           | alpha              | beta
  Highest 2-occ = -0.357220024695756 |  0.246507533095412 |  0.263746601981986
  Lowest 0-occ =  -0.346306903950458 |  0.124052048938619 |  0.124797329930832
  1-occ =          0.061893564050887 |  0.122005273752491 |  0.130682011822674
  1-occ =         0.0618935640508881 |  0.122005273752494 |  0.130682011822679
  Roothaan mo_energy =
[-3.43085088 -2.29094474 -2.29094474 -2.28608982 -0.35722002 -0.3463069
 -0.27496504 -0.27496504 -0.22818308 -0.22818308 -0.12086609 -0.12086609
 -0.06438309  0.05390846  0.06142541  0.06189356  0.06189356  0.06425791
  0.06425791  0.08036657  0.08810776  0.08810776  0.24660228  0.24853316
  0.24853316  0.25645745  0.25645745  0.46359771  0.46441319  0.46441319
  0.57118637  0.76383405  0.76421067  0.76421067  0.76507661  0.76507661
  0.76582595  0.76582595  1.29177021  1.29604712  1.29604712  1.29955732
  1.29955732  1.98364568  1.98364568  1.99664439  2.4856989   2.82448277
  2.82448277  2.82925898  2.82925898  2.83326029  2.83326029  2.83588928
  2.83588928  2.83680706  3.38148148  3.38148148  3.3886486   3.3886486
  3.39092133  3.39092133  3.39129515]
E1 = -88.07067724034206  Ecoul = 31.417600673940175
cycle= 3 E= -56.6530765664019  delta_E= -0.419  |g|= 0.459  |ddm|= 2.73
    CPU time for cycle= 3     20.47 sec, wall time      0.16 sec

WARN: HOMO -0.405871219976073 >= LUMO -0.410198969630636

                  Roothaan           | alpha              | beta
  Highest 2-occ = -0.529976525063673 |  -0.64106597561106 | -0.637650843608818
  Lowest 0-occ =  -0.410198969630636 | -0.574489469602963 | -0.573581759324332
  1-occ =         -0.405871219976089 | -0.580277092417948 | -0.573086107270688
  1-occ =         -0.405871219976073 | -0.580277092417942 | -0.573086107270683
  Roothaan mo_energy =
[-3.62082359 -2.47156149 -2.47156149 -2.46198653 -0.52997653 -0.41019897
 -0.40587122 -0.40587122 -0.38539248 -0.38539248 -0.13181855 -0.12980493
 -0.12980493 -0.0157248  -0.0157248   0.02364411  0.03737941  0.03737941
  0.04748665  0.04748665  0.05120884  0.0559848   0.18267748  0.18267748
  0.19264684  0.19264684  0.19549107  0.37972337  0.37972337  0.39904593
  0.49083813  0.64798201  0.64798201  0.66184503  0.66184503  0.66880478
  0.66880478  0.67082312  1.15799387  1.15799387  1.16516654  1.16554426
  1.16554426  1.84224446  1.84224446  1.8657093   2.38499444  2.67997442
  2.67997442  2.69328396  2.69328396  2.70293169  2.70293169  2.70877111
  2.70877111  2.7107278   3.21662244  3.21662244  3.22604291  3.22604291
  3.23022077  3.23022077  3.2313524 ]
E1 = -101.96897482880297  Ecoul = 44.77865885009108
cycle= 4 E= -57.1903159787119  delta_E= -0.537  |g|= 1.16  |ddm|= 2.17
    CPU time for cycle= 4     25.07 sec, wall time      0.20 sec
  HOMO = -0.34609502347069  LUMO = -0.281149480046633
                  Roothaan           | alpha              | beta
  Highest 2-occ = -0.501735570058565 | -0.0166084399326518 | 0.0149318368294723
  Lowest 0-occ =  -0.281149480046633 |  0.120699153229831 |  0.121952350396855
  1-occ =         -0.346095023470704 | 0.0187719272043279 |  0.740707419062789
  1-occ =          -0.34609502347069 | 0.0187719272043771 |  0.740707419062844
  Roothaan mo_energy =
[-3.50050026 -2.35523762 -2.35523762 -2.34269797 -0.50173557 -0.34609502
 -0.34609502 -0.28114948 -0.28114948 -0.25591891 -0.0897064  -0.08555886
 -0.08555886  0.00406097  0.00406097  0.04055376  0.04912888  0.04912888
  0.05936167  0.05936167  0.0645051   0.07032888  0.21611783  0.21611783
  0.22758228  0.22758228  0.23675538  0.4201441   0.4201441   0.44436404
  0.5339884   0.70754901  0.70754901  0.72608412  0.72608412  0.73726048
  0.73726048  0.74096836  1.24259457  1.24259457  1.25036259  1.25036259
  1.2595866   1.9266207   1.9266207   1.95690497  2.44411879  2.76268302
  2.76268302  2.78341921  2.78341921  2.79730806  2.79730806  2.80524595
  2.80524595  2.80782489  3.32415335  3.32415335  3.3342026   3.3342026
  3.34256013  3.34256013  3.34572645]
E1 = -100.85175331914726  Ecoul = 43.52266143838291
cycle= 5 E= -57.3290918807644  delta_E= -0.139  |g|= 0.915  |ddm|= 0.333
    CPU time for cycle= 5     21.00 sec, wall time      0.17 sec
  HOMO = -0.259095007187782  LUMO = -0.141081195286884
                  Roothaan           | alpha              | beta
  Highest 2-occ = -0.395233889088261 |  -0.10605686567579 | -0.0809549816077596
  Lowest 0-occ =  -0.141081195286884 |  0.106884090711538 |  0.111541642555976
  1-occ =         -0.259095007187788 | -0.0885138306163437 |  0.629892013913132
  1-occ =         -0.259095007187782 | -0.0885138306163143 |  0.629892013913168
  Roothaan mo_energy =
[-3.33555706 -2.19505408 -2.19505408 -2.18543405 -0.39523389 -0.25909501
 -0.25909501 -0.1410812  -0.1410812  -0.11654866 -0.05037271 -0.05037271
 -0.03911192  0.04527621  0.04527621  0.06465619  0.06802172  0.06802172
  0.07575957  0.0871835   0.0871835   0.0922782   0.27604289  0.27604289
  0.27835823  0.27835823  0.29234167  0.4892853   0.4892853   0.50369311
  0.59842818  0.80741102  0.80741102  0.81698227  0.81698227  0.82471895
  0.82471895  0.82752666  1.36205783  1.36205783  1.36821801  1.36821801
  1.38362508  2.05061485  2.05061485  2.07229473  2.53019496  2.89268028
  2.89268028  2.90852594  2.90852594  2.91750189  2.91750189  2.92185439
  2.92185439  2.9231178   3.47542105  3.47542105  3.47808603  3.47808603
  3.48687356  3.48687356  3.4908525 ]
E1 = -99.30991304197504  Ecoul = 41.81866497157996
cycle= 6 E= -57.4912480703951  delta_E= -0.162  |g|= 0.576  |ddm|= 0.556
    CPU time for cycle= 6     18.43 sec, wall time      0.14 sec
  HOMO = -0.218812914347416  LUMO = -0.0618776811160048
                  Roothaan           | alpha              | beta
  Highest 2-occ = -0.342562055810831 | -0.172461658832943 | -0.151283791029361
  Lowest 0-occ =  -0.0618776811160048 | 0.0704158957926255 | 0.0771322384485452
  1-occ =         -0.218812914347423 | -0.234407418000986 |  0.482824822412356
  1-occ =         -0.218812914347416 | -0.234407418000972 |  0.482824822412377
  Roothaan mo_energy =
[-3.23392599 -2.09758135 -2.09758135 -2.09075524 -0.34256206 -0.21881291
 -0.21881291 -0.06187768 -0.06187768 -0.02876497 -0.02675426 -0.02675426
 -0.01544362  0.06310209  0.06310209  0.07845377  0.07845377  0.08121709
  0.08484707  0.10457928  0.10457928  0.10796498  0.3054631   0.3054631
  0.31615768  0.31615768  0.32901071  0.53140295  0.53140295  0.54181563
  0.64062436  0.86382855  0.86382855  0.86764434  0.86764434  0.87316829
  0.87316829  0.87563026  1.43146995  1.43146995  1.44397763  1.44397763
  1.46300033  2.12556599  2.12556599  2.14425184  2.58400274  2.96830469
  2.96830469  2.98129034  2.98129034  2.98718846  2.98718846  2.9893328
  2.9893328   2.98983284  3.56492051  3.56492051  3.56517684  3.56517684
  3.57518344  3.57518344  3.58047022]
E1 = -98.6294474461387  Ecoul = 41.07983371376953
cycle= 7 E= -57.5496137323692  delta_E= -0.0584  |g|= 0.412  |ddm|= 0.369
    CPU time for cycle= 7     20.49 sec, wall time      0.16 sec
  HOMO = -0.187605151775061  LUMO = -0.0165604933962387
                  Roothaan           | alpha              | beta
  Highest 2-occ = -0.313707037833837 | -0.197034004176601 | -0.177859999792305
  Lowest 0-occ =  -0.0165604933962387 | 0.0536006061238339 | 0.0593698141319565
  1-occ =         -0.187605151775071 | -0.301429091797015 |  0.414007371960937
  1-occ =         -0.187605151775061 | -0.301429091797007 |  0.414007371960957
  Roothaan mo_energy =
[-3.16939779 -2.03653753 -2.03653753 -2.03199884 -0.31370704 -0.18760515
 -0.18760515 -0.01656049 -0.01656049 -0.01574291 -0.01574291 -0.004069
  0.01215758  0.07077592  0.07077592  0.08466618  0.08466618  0.08899952
  0.09180125  0.11473241  0.11473241  0.1172507   0.31990142  0.31990142
  0.33839229  0.33839229  0.34947053  0.55498908  0.55498908  0.56262111
  0.66452746  0.89394602  0.89394602  0.89452731  0.89452731  0.89847719
  0.89847719  0.90045303  1.47388921  1.47388921  1.49082244  1.49082244
  1.50972215  2.1707582   2.1707582   2.18753534  2.61659978  3.01139292
  3.01139292  3.02262237  3.02262237  3.02685399  3.02685399  3.02782904
  3.02782904  3.02790914  3.61835479  3.61835479  3.6204338   3.6204338
  3.62881671  3.62881671  3.6344127 ]
E1 = -98.29542785462019  Ecoul = 40.725306785422575
cycle= 8 E= -57.5701210691976  delta_E= -0.0205  |g|= 0.32  |ddm|= 0.168
    CPU time for cycle= 8     19.94 sec, wall time      0.15 sec
  HOMO = -0.114564464972498  LUMO = 0.0129515454619643
                  Roothaan           | alpha              | beta
  Highest 2-occ = -0.246798434726169 | -0.208561001022488 | -0.192042935125087
  Lowest 0-occ =  0.0129515454619643 | 0.0386913212919527 | 0.0425999531126586
  1-occ =         -0.114564464972499 | -0.331201242483679 |  0.374873952636898
  1-occ =         -0.114564464972498 | -0.331201242483678 |  0.374873952636885
  Roothaan mo_energy =
[-3.01557518 -1.89260487 -1.89260487 -1.88773145 -0.24679843 -0.11456446
 -0.11456446  0.01295155  0.01295155  0.01913613  0.06496844  0.06496844
  0.06979852  0.08544441  0.08544441  0.11270525  0.1147556   0.1147556
  0.12269729  0.1387338   0.1387338   0.14294383  0.36087731  0.36087731
  0.39300037  0.39300037  0.40199981  0.60891483  0.60891483  0.61720801
  0.72050829  0.95755702  0.95755702  0.95927923  0.95927923  0.96133107
  0.96133107  0.96346586  1.57924273  1.57924273  1.60105621  1.60105621
  1.62006325  2.27671534  2.27671534  2.29712754  2.69438518  3.10903284
  3.10903284  3.12146926  3.12146926  3.12601534  3.12601534  3.12693298
  3.12693298  3.12695483  3.74885026  3.74885026  3.75086666  3.75086666
  3.76038042  3.76038042  3.76652989]
E1 = -97.59214261933093  Ecoul = 40.00015986898202
cycle= 9 E= -57.5919827503489  delta_E= -0.0219  |g|= 0.12  |ddm|= 0.267
    CPU time for cycle= 9     22.02 sec, wall time      0.18 sec
  HOMO = -0.091947294748508  LUMO = 0.0218423117236188
                  Roothaan           | alpha              | beta
  Highest 2-occ = -0.228901807164089 | -0.222318723615774 | -0.206185024269815
  Lowest 0-occ =  0.0218423117236188 | 0.0294744858167351 | 0.0327244317578832
  1-occ =         -0.0919472947485131 | -0.391279131189016 |  0.305533098209997
  1-occ =         -0.091947294748508 |  -0.39127913118901 |  0.305533098210016
  Roothaan mo_energy =
[-2.96409579 -1.84466436 -1.84466436 -1.83923118 -0.22890181 -0.09194729
 -0.09194729  0.02184231  0.02184231  0.02519729  0.07593181  0.07593181
  0.0783974   0.08764123  0.08764123  0.12046095  0.1376095   0.1376095
  0.14710779  0.14710779  0.14835248  0.15180386  0.37359206  0.37359206
  0.41299847  0.41299847  0.42343114  0.62662718  0.62662718  0.63581296
  0.73951119  0.9778864   0.9778864   0.97963857  0.97963857  0.98210559
  0.98210559  0.98445488  1.61423586  1.61423586  1.63852462  1.63852462
  1.65876448  2.31208748  2.31208748  2.33412566  2.72075161  3.14025756
  3.14025756  3.15367968  3.15367968  3.15859401  3.15859401  3.1595721
  3.1595721   3.15958666  3.79187369  3.79187369  3.79429074  3.79429074
  3.80419158  3.80419158  3.81075787]
E1 = -97.3205814753399  Ecoul = 39.72329120414585
cycle= 10 E= -57.5972902711941  delta_E= -0.00531  |g|= 0.0459  |ddm|= 0.14
    CPU time for cycle= 10     20.44 sec, wall time      0.16 sec
  HOMO = -0.0913401405421969  LUMO = 0.0227692515575554
                  Roothaan           | alpha              | beta
  Highest 2-occ = -0.230103261929721 |  -0.22732548281199 | -0.210882301272618
  Lowest 0-occ =  0.0227692515575554 | 0.0261097892978767 | 0.0296491563717249
  1-occ =         -0.091340140542216 |  -0.41359235726096 |  0.282291988348302
  1-occ =         -0.0913401405421969 | -0.413592357260952 |  0.282291988348326
  Roothaan mo_energy =
[-2.95363038 -1.83512836 -1.83512836 -1.82931649 -0.23010326 -0.09134014
 -0.09134014  0.02276925  0.02276925  0.02587708  0.07754925  0.07754925
  0.08114475  0.08883848  0.08883848  0.12256889  0.14271053  0.14271053
  0.14916631  0.14916631  0.15351405  0.16470946  0.37318647  0.37318647
  0.41722391  0.41722391  0.43336437  0.63029038  0.63029038  0.63978435
  0.7438719   0.98167253  0.98167253  0.98279211  0.98279211  0.98649745
  0.98649745  0.98902806  1.61929278  1.61929278  1.64657509  1.64657509
  1.66938654  2.31909628  2.31909628  2.34116216  2.72635842  3.14488465
  3.14488465  3.15901666  3.15901666  3.16402472  3.16402472  3.16479001
  3.16485975  3.16485975  3.79892974  3.79892974  3.80258626  3.80258626
  3.81217067  3.81217067  3.8192819 ]
E1 = -97.27836481079206  Ecoul = 39.68059829144867
cycle= 11 E= -57.5977665193434  delta_E= -0.000476  |g|= 0.0324  |ddm|= 0.0466
    CPU time for cycle= 11     18.95 sec, wall time      0.15 sec
  HOMO = -0.0808612220573632  LUMO = 0.0254339032317523
                  Roothaan           | alpha              | beta
  Highest 2-occ = -0.222448501027066 |  -0.22809331868928 | -0.212235567692818
  Lowest 0-occ =  0.0254339032317523 |  0.025134456728253 | 0.0283825374099977
  1-occ =         -0.0808612220573722 | -0.418991883604119 |  0.278076796727555
  1-occ =         -0.0808612220573632 | -0.418991883604117 |  0.278076796727571
  Roothaan mo_energy =
[-2.93095439 -1.81417803 -1.81417803 -1.80795278 -0.2224485  -0.08086122
 -0.08086122  0.0254339   0.0254339   0.02847603  0.08031993  0.08031993
  0.0830986   0.09128888  0.09128888  0.12642599  0.1531578   0.1531578
  0.15399178  0.15399178  0.15765436  0.1761777   0.37949356  0.37949356
  0.42661049  0.42661049  0.44398725  0.6383523   0.6383523   0.64853994
  0.75256942  0.99080713  0.99080713  0.99161257  0.99161257  0.99595517
  0.99595517  0.99864898  1.63411579  1.63411579  1.66318908  1.66318908
  1.68715433  2.33472308  2.33472308  2.35798958  2.73826498  3.15809893
  3.15809893  3.17294903  3.17294903  3.17832689  3.17832689  3.17930998
  3.17932804  3.17932804  3.81775734  3.81775734  3.8211323   3.8211323
  3.83152849  3.83152849  3.83892137]
E1 = -97.16734699391458  Ecoul = 39.56925510057445
cycle= 12 E= -57.5980918933401  delta_E= -0.000325  |g|= 0.00167  |ddm|= 0.0369
    CPU time for cycle= 12     18.89 sec, wall time      0.15 sec
  HOMO = -0.0806806208521357  LUMO = 0.0253134479344632
                  Roothaan           | alpha              | beta
  Highest 2-occ = -0.222102260357183 | -0.229993632711811 | -0.214096118567748
  Lowest 0-occ =  0.0253134479344632 | 0.0237363983260732 | 0.0270331790335741
  1-occ =         -0.0806806208521452 | -0.428486074910144 |  0.267849427729773
  1-occ =         -0.0806806208521357 | -0.428486074910138 |  0.267849427729795
  Roothaan mo_energy =
[-2.93055578 -1.81385675 -1.81385675 -1.8076382  -0.22210226 -0.08068062
 -0.08068062  0.02531345  0.02531345  0.02833691  0.08021252  0.08021252
  0.08301896  0.09143427  0.09143427  0.12617954  0.15306917  0.15306917
  0.15395487  0.15395487  0.15759378  0.17597983  0.37905935  0.37905935
  0.4265419   0.4265419   0.44383672  0.63815077  0.63815077  0.64841777
  0.75242946  0.99058806  0.99058806  0.9913263   0.9913263   0.99575144
  0.99575144  0.99844146  1.63424804  1.63424804  1.66327481  1.66327481
  1.6872452   2.33476775  2.33476775  2.35810911  2.73830188  3.15801773
  3.15801773  3.1728788   3.1728788   3.17827445  3.17827445  3.17927433
  3.17928836  3.17928836  3.81794985  3.81794985  3.82130487  3.82130487
  3.83174579  3.83174579  3.83914313]
E1 = -97.15931762893806  Ecoul = 39.56122420219744
cycle= 13 E= -57.5980934267406  delta_E= -1.53e-06  |g|= 0.000507  |ddm|= 0.00351
    CPU time for cycle= 13     14.85 sec, wall time      0.12 sec
  HOMO = -0.0808485383197767  LUMO = 0.0253183903183496
                  Roothaan           | alpha              | beta
  Highest 2-occ = -0.222165550232648 | -0.230152786900993 | -0.214222791280857
  Lowest 0-occ =  0.0253183903183496 | 0.0236516292552667 | 0.0269608857699791
  1-occ =         -0.0808485383197856 | -0.429022605458373 |  0.267124749801393
  1-occ =         -0.0808485383197767 | -0.429022605458371 |   0.26712474980141
  Roothaan mo_energy =
[-2.93078177 -1.81406116 -1.81406116 -1.80784125 -0.22216555 -0.08084854
 -0.08084854  0.02531839  0.02531839  0.0283439   0.0802018   0.0802018
  0.08302964  0.09140559  0.09140559  0.12620279  0.15305749  0.15305749
  0.15386087  0.15386087  0.15759346  0.17590158  0.37920939  0.37920939
  0.42646929  0.42646929  0.4437755   0.63811724  0.63811724  0.64841397
  0.75239599  0.99055492  0.99055492  0.9912797   0.9912797   0.99573817
  0.99573817  0.99843815  1.63412717  1.63412717  1.66312959  1.66312959
  1.68711501  2.33463998  2.33463998  2.35800326  2.73821694  3.15790285
  3.15790285  3.17278036  3.17278036  3.17818975  3.17818975  3.17920197
  3.17921278  3.17921278  3.81778927  3.81778927  3.8211154   3.8211154
  3.83158544  3.83158544  3.83898001]
E1 = -97.16068622602438  Ecoul = 39.56259261913799
cycle= 14 E= -57.5980936068864  delta_E= -1.8e-07  |g|= 0.00012  |ddm|= 0.00231
    CPU time for cycle= 14     22.95 sec, wall time      0.18 sec
  HOMO = -0.0808469415995412  LUMO = 0.0253126683913861
                  Roothaan           | alpha              | beta
  Highest 2-occ = -0.222175011614989 | -0.230133906392527 | -0.214208521062877
  Lowest 0-occ =  0.0253126683913861 | 0.0236599903071858 | 0.0269703829295028
  1-occ =         -0.0808469415995467 | -0.428915031402158 |  0.267250527899983
  1-occ =         -0.0808469415995412 | -0.428915031402156 |       0.2672505279
  Roothaan mo_energy =
[-2.93077507 -1.81405719 -1.81405719 -1.80783638 -0.22217501 -0.08084694
 -0.08084694  0.02531267  0.02531267  0.02833662  0.08019714  0.08019714
  0.08302861  0.09142017  0.09142017  0.12620879  0.15305292  0.15305292
  0.15385773  0.15385773  0.15759357  0.17590086  0.37917107  0.37917107
  0.42646343  0.42646343  0.44377579  0.6381111   0.6381111   0.64841459
  0.75239894  0.99054766  0.99054766  0.9912648   0.9912648   0.99573372
  0.99573372  0.99843387  1.63413873  1.63413873  1.66312832  1.66312832
  1.68711636  2.33463846  2.33463846  2.35800612  2.73821694  3.15789437
  3.15789437  3.17277568  3.17277568  3.17818781  3.17818781  3.17920184
  3.17921227  3.17921227  3.81779225  3.81779225  3.82112047  3.82112047
  3.8315904   3.8315904   3.83898558]
E1 = -97.16043587279427  Ecoul = 39.56234223490353
cycle= 15 E= -57.5980936378907  delta_E= -3.1e-08  |g|= 1.57e-05  |ddm|= 0.000628
    CPU time for cycle= 15     23.94 sec, wall time      0.19 sec
  HOMO = -0.0808495731455434  LUMO = 0.0253126323170572
                  Roothaan           | alpha              | beta
  Highest 2-occ = -0.222173568869511 |  -0.23013780637962 | -0.214211634696042
  Lowest 0-occ =  0.0253126323170572 | 0.0236575562579456 | 0.0269673910363151
  1-occ =         -0.0808495731455498 | -0.428935694611954 |  0.267230367601229
  1-occ =         -0.0808495731455434 | -0.428935694611955 |  0.267230367601237
  Roothaan mo_energy =
[-2.93078028 -1.81406253 -1.81406253 -1.80784046 -0.22217357 -0.08084957
 -0.08084957  0.02531263  0.02531263  0.02833621  0.08019664  0.08019664
  0.08302896  0.09141592  0.09141592  0.12620572  0.15305206  0.15305206
  0.15385503  0.15385503  0.15759331  0.17590152  0.37917352  0.37917352
  0.42646107  0.42646107  0.44377544  0.6381086   0.6381086   0.64841325
  0.75239587  0.99054528  0.99054528  0.99126196  0.99126196  0.99573198
  0.99573198  0.99843241  1.63413392  1.63413392  1.66312475  1.66312475
  1.68711342  2.33463442  2.33463442  2.35800256  2.73821431  3.15788985
  3.15788985  3.17277162  3.17277162  3.17818399  3.17818399  3.17919816
  3.17920856  3.17920856  3.8177872   3.8177872   3.82111558  3.82111558
  3.83158525  3.83158525  3.83898036]
E1 = -97.16049720035889  Ecoul = 39.56240356217059
cycle= 16 E= -57.5980936381883  delta_E= -2.98e-10  |g|= 2e-06  |ddm|= 4.54e-05
    CPU time for cycle= 16     19.38 sec, wall time      0.15 sec
  HOMO = -0.0808479586059021  LUMO = 0.025312906961482
                  Roothaan           | alpha              | beta
  Highest 2-occ = -0.222173654320719 | -0.230136589607485 | -0.214210719033953
  Lowest 0-occ =   0.025312906961482 | 0.0236580685723266 | 0.0269677453506407
  1-occ =         -0.0808479586059098 | -0.428932184585736 |  0.267236354111151
  1-occ =         -0.0808479586059021 | -0.428932184585728 |  0.267236354111174
  Roothaan mo_energy =
[-2.93077858 -1.81406096 -1.81406096 -1.8078387  -0.22217365 -0.08084796
 -0.08084796  0.02531291  0.02531291  0.02833643  0.08019686  0.08019686
  0.08302916  0.091416    0.091416    0.12620624  0.15305234  0.15305234
  0.153856    0.153856    0.15759373  0.17590261  0.37917373  0.37917373
  0.42646185  0.42646185  0.44377639  0.63810934  0.63810934  0.64841412
  0.75239672  0.99054626  0.99054626  0.99126285  0.99126285  0.99573299
  0.99573299  0.99843343  1.6341352   1.6341352   1.66312604  1.66312604
  1.68711482  2.33463569  2.33463569  2.35800398  2.73821527  3.15789108
  3.15789108  3.17277292  3.17277292  3.17818534  3.17818534  3.17919955
  3.17920994  3.17920994  3.81778876  3.81778876  3.82111712  3.82111712
  3.83158685  3.83158685  3.838982  ]
E1 = -97.16049802186919  Ecoul = 39.56240438367969
Extra cycle  E= -57.5980936381895  delta_E= -1.19e-12  |g|= 1.36e-06  |ddm|= 1.29e-05
    CPU time for scf_cycle    577.63 sec, wall time      8.16 sec
    CPU time for SCF    577.63 sec, wall time      8.16 sec
converged SCF energy = -57.5980936381895
