#INFO: **** input file is /home/nkousuke/lustre/toBeSync/turboRVB/05turbo-genius-development/turbogenius_paper/04data/sanity_checks/03pyscf_HF_turbo_VMC_via_trexio/00open_boundary/results/V/pyscf-HF-workflow/run.py ****

from pyscf_wrapper import Pyscf_wrapper

# input variables
pyscf_chkfile="pyscf.chk"
structure_file="V.xyz"

# input variables
omp_num_threads=128
charge=0
spin=3
basis="ccecp-ccpvtz"
ecp="ccecp"
scf_method="HF"
dft_xc="NA"
solver_newton=True
MP2_flag=False
CCSD_flag=False
pyscf_output="out.pyscf"
twist_average=False
exp_to_discard=0.0
kpt=[0.0, 0.0, 0.0]
kpt_grid=[1, 1, 1]
smearing_method="fermi"
smearing_sigma=0.0

pyscf_calc=Pyscf_wrapper(
                        structure_file=structure_file,
                        chkfile=pyscf_chkfile,
                        )

pyscf_calc.run_pyscf(
                  omp_num_threads=omp_num_threads,
                  charge=charge,
                  spin=spin,
                  basis=basis,
                  ecp=ecp,
                  scf_method=scf_method,
                  dft_xc=dft_xc,
                  solver_newton=solver_newton,
                  MP2_flag=MP2_flag,
                  CCSD_flag=CCSD_flag,
                  pyscf_output=pyscf_output,
                  twist_average=twist_average,
                  exp_to_discard=exp_to_discard,
                  kpt=kpt,
                  kpt_grid=kpt_grid,
                  smearing_method=smearing_method,
                  smearing_sigma=smearing_sigma
                  )
                #INFO: ******************** input file end ********************


System: uname_result(system='Linux', node='spcc-145', release='5.4.0-66-generic', version='#74-Ubuntu SMP Wed Jan 27 22:54:38 UTC 2021', machine='x86_64', processor='x86_64')  Threads 128
Python 3.7.3 (default, Mar 27 2019, 22:11:17) 
[GCC 7.3.0]
numpy 1.20.1  scipy 1.7.3
Date: Mon Dec 19 22:31:05 2022
PySCF version 2.0.1
PySCF path  /home/nkousuke/application/anaconda3/lib/python3.7/site-packages/pyscf

[CONFIG] conf_file /home/nkousuke/.pyscf_conf.py
[INPUT] verbose = 5
[INPUT] max_memory = 506677.109375 
[INPUT] num. atoms = 1
[INPUT] num. electrons = 13
[INPUT] charge = 0
[INPUT] spin (= nelec alpha-beta = 2S) = 3
[INPUT] symmetry False subgroup None
[INPUT] Mole.unit = A
[INPUT]  1 V      0.000000000000   0.000000000000   0.000000000000 AA    0.000000000000   0.000000000000   0.000000000000 Bohr
[INPUT] ---------------- BASIS SET ---------------- 
[INPUT] l, kappa, [nprim/nctr], expnt,             c_1 c_2 ...
[INPUT] V
[INPUT] 0    0    [13   /1   ]  68.577621         0.000804
                                34.937147         -0.011594
                                17.939491         0.092209
                                11.262123         -0.045477
                                6.776264          -0.287983
                                3.524091          -0.217648
                                1.938421          0.407509
                                0.927153          0.658193
                                0.44842           0.255234
                                0.209668          0.00862
                                0.10366           0.002734
                                0.05063           -0.001161
                                0.024201          0.000294
[INPUT] 0    0    [13   /1   ]  68.577621         -0.000177
                                34.937147         0.002791
                                17.939491         -0.02365
                                11.262123         0.012504
                                6.776264          0.078761
                                3.524091          0.054974
                                1.938421          -0.118955
                                0.927153          -0.245341
                                0.44842           -0.222959
                                0.209668          0.047809
                                0.10366           0.415374
                                0.05063           0.54088
                                0.024201          0.183421
[INPUT] 0    0    [13   /1   ]  68.577621         -0.000583
                                34.937147         0.00957
                                17.939491         -0.085606
                                11.262123         0.048426
                                6.776264          0.331239
                                3.524091          0.140352
                                1.938421          -0.907962
                                0.927153          -0.503878
                                0.44842           0.398938
                                0.209668          0.971131
                                0.10366           0.423999
                                0.05063           -0.628646
                                0.024201          -0.467495
[INPUT] 0    0    [13   /1   ]  68.577621         -0.000765
                                34.937147         0.014529
                                17.939491         -0.139618
                                11.262123         0.063073
                                6.776264          0.704193
                                3.524091          -0.011602
                                1.938421          -2.311604
                                0.927153          0.768269
                                0.44842           2.16892
                                0.209668          -1.062671
                                0.10366           -1.218151
                                0.05063           0.340809
                                0.024201          0.713322
[INPUT] 0    0    [1    /1   ]  0.024201             1
[INPUT] 1    0    [13   /1   ]  96.215967         6.9e-05
                                49.57934          -0.000672
                                25.638009         0.008199
                                14.025942         -0.027108
                                8.740334          -0.053021
                                4.63484           0.005002
                                2.553374          0.261986
                                1.321166          0.433544
                                0.681285          0.324947
                                0.349458          0.092342
                                0.172773          0.008964
                                0.0633            0.001185
                                0.033969          0.000104
[INPUT] 1    0    [13   /1   ]  96.215967         4e-05
                                49.57934          -0.000133
                                25.638009         -0.000955
                                14.025942         0.003719
                                8.740334          0.018866
                                4.63484           -0.012074
                                2.553374          -0.057107
                                1.321166          -0.146433
                                0.681285          -0.067365
                                0.349458          -0.068254
                                0.172773          0.403103
                                0.0633            0.502668
                                0.033969          0.261291
[INPUT] 1    0    [13   /1   ]  96.215967         -5.3e-05
                                49.57934          2.3e-05
                                25.638009         0.004629
                                14.025942         -0.007755
                                8.740334          -0.104133
                                4.63484           -0.017762
                                2.553374          0.728212
                                1.321166          0.218826
                                0.681285          -0.493223
                                0.349458          -0.838192
                                0.172773          0.398401
                                0.0633            0.664589
                                0.033969          0.033011
[INPUT] 1    0    [13   /1   ]  96.215967         -0.001262
                                49.57934          0.006419
                                25.638009         -0.021229
                                14.025942         0.115777
                                8.740334          -0.42074
                                4.63484           0.197742
                                2.553374          1.5756
                                1.321166          -1.067913
                                0.681285          -1.310083
                                0.349458          1.191147
                                0.172773          0.550516
                                0.0633            -0.718788
                                0.033969          -0.157441
[INPUT] 1    0    [1    /1   ]  0.033969             1
[INPUT] 2    0    [11   /1   ]  89.989649         5.1e-05
                                33.132961         0.004804
                                15.879656         0.029485
                                7.465803          0.086249
                                3.551993          0.179728
                                1.728185          0.26185
                                0.850498          0.291794
                                0.417673          0.259356
                                0.201523          0.174944
                                0.100711          0.062278
                                0.058959          0.027653
[INPUT] 2    0    [11   /1   ]  89.989649         -3.8e-05
                                33.132961         -0.00459
                                15.879656         -0.027563
                                7.465803          -0.082775
                                3.551993          -0.173494
                                1.728185          -0.236188
                                0.850498          -0.149226
                                0.417673          0.044145
                                0.201523          0.3905
                                0.100711          0.203064
                                0.058959          0.398002
[INPUT] 2    0    [11   /1   ]  89.989649         0.000128
                                33.132961         0.006652
                                15.879656         0.044635
                                7.465803          0.122559
                                3.551993          0.311147
                                1.728185          0.288813
                                0.850498          -0.142246
                                0.417673          -0.613737
                                0.201523          -0.123916
                                0.100711          -0.020235
                                0.058959          0.733259
[INPUT] 2    0    [1    /1   ]  0.058959             1
[INPUT] 3    0    [1    /1   ]  0.55262              1
[INPUT] 3    0    [1    /1   ]  2.328788             1
[INPUT] 4    0    [1    /1   ]  1.977796             1

nuclear repulsion = 0
number of shells = 17
number of NR pGTOs = 405
number of NR cGTOs = 63
basis = ccecp-ccpvtz
ecp = ccecp
CPU time:         5.00




******** <class 'pyscf.scf.rohf.ROHF'> ********
method = ROHF-RHF
initial guess = minao
damping factor = 0
level_shift factor = 0
DIIS = <class 'pyscf.scf.diis.CDIIS'>
diis_start_cycle = 1
diis_space = 8
SCF conv_tol = 1e-09
SCF conv_tol_grad = None
SCF max_cycles = 200
direct_scf = True
direct_scf_tol = 1e-13
chkfile to save SCF result = /JOBs/tmpdir/pbs.6390604.spcc-adm1/tmpsp4gkren
max_memory 506677 MB (current use 106 MB)
num. doubly occ = 5  num. singly occ = 3
******** <class 'pyscf.scf.rohf.ROHF'> Newton solver flags ********
SCF tol = 1e-09
conv_tol_grad = None
max. SCF cycles = 200
direct_scf = True
direct_scf_tol = 1e-13
chkfile to save SCF result = pyscf.chk
max_cycle_inner = 12
max_stepsize = 0.05
ah_start_tol = 1e+09
ah_level_shift = 0
ah_conv_tol = 1e-12
ah_lindep = 1e-14
ah_start_cycle = 1
ah_max_cycle = 40
ah_grad_trust_region = 2.5
kf_interval = 4
kf_trust_region = 5
canonicalization = True
max_memory 506677 MB (current use 106 MB)
Set conv_tol_grad to 3.16228e-05
Initial guess density matrix is not given. Generating initial guess from minao

WARN: HOMO -0.0219279571088313 >= LUMO -0.0219279571088288

                  Roothaan           | alpha              | beta
  Highest 2-occ = -0.239459129345565 | -0.239459129345565 | -0.239459129345565
  Lowest 0-occ =  -0.0219279571088288 | -0.0219279571088282 | -0.0219279571088282
  1-occ =         -0.0219279571089092 | -0.0219279571089087 | -0.0219279571089087
  1-occ =         -0.0219279571089047 | -0.0219279571089052 | -0.0219279571089052
  1-occ =         -0.0219279571088313 | -0.0219279571088324 | -0.0219279571088324
  Roothaan mo_energy =
[-3.27063531 -2.06791136 -2.06791136 -2.06791136 -0.23945913 -0.02192796
 -0.02192796 -0.02192796 -0.02192796 -0.02192796  0.03111667  0.03111667
  0.03111667  0.1536787   0.18902271  0.18902271  0.18902271  0.18902271
  0.18902271  0.2062229   0.2062229   0.2062229   0.72541298  0.72541298
  0.72541298  0.72541298  0.72541298  0.79606551  1.11861316  1.11861316
  1.11861316  1.7252912   1.7252912   1.7252912   1.7252912   1.7252912
  1.7252912   1.7252912   2.81194261  2.81194261  2.81194261  2.81194261
  2.81194261  3.90723376  4.93506874  4.93506874  4.93506874  6.66410407
  6.66410407  6.66410407  6.66410407  6.66410407  6.66410407  6.66410407
  8.22386646  8.22386646  8.22386646  8.22386646  8.22386646  8.22386646
  8.22386646  8.22386646  8.22386646]
E1 = -118.2055023823957  Ecoul = 47.47175249687457
Initial guess E= -70.7337498855211  |g|= 0.515632
    CPU time for initializing second order scf    267.65 sec, wall time      5.71 sec
    |g|= 0.516 (keyframe)
    imic 1(1)  |g|= 0.445  |dxi|= 0.0803  max(|x|)= 0.0244  |dr|= 0.0803  eig= -0.0414  seig= 0.266
    imic 2(2)  |g|= 0.301  |dxi|= 0.0999  max(|x|)= 0.149  |dr|= 0.16  eig= -0.0886  seig= 0.0419
    imic 3(3)  |g|= 0.182  |dxi|= 0.103  max(|x|)= 0.125  |dr|= 0.255  eig= -0.054  seig= 0.00292
    imic 4(4)  |g|= 0.0861  |dxi|= 0.0997  max(|x|)= 0.0933  |dr|= 0.348  eig= -0.0228  seig= 0.000152
E1 = -120.76592063322875  Ecoul = 49.88641450998259
Adjust keyframe g_orb to |g|= 0.0841  |g-correction|=0.0327  E=-70.8795061232 dE=-0.14576
    imic 5(5)  |g|= 0.0455  |dxi|= 0.0689  max(|x|)= 0.108  |dr|= 0.0689  eig= -0.00608  seig= 8.79e-05
Negative hessians found [-0.01262712]
Negative hessians found [-0.04227182]
    imic 6(7)  |g|= 0.00905  |dxi|= 0.0541  max(|x|)= 0.0283  |dr|= 0.105  eig= -0.00191  seig= 5.43e-05
Negative hessians found [-0.04302973]
    imic 7(8)  |g|= 0.016  |dxi|= 0.0437  max(|x|)= 0.0203  |dr|= 0.111  eig= -0.000157  seig= 1.24e-05
E1 = -121.0372753883751  Ecoul = 50.15095557232263
Adjust keyframe g_orb to |g|= 0.03  |g-correction|=0.0263  E=-70.8863198161 dE=-0.0068137
Negative hessians found [-0.08098702 -0.03700004]
    imic 8(9)  |g|= 0.0301  |dxi|= 0.0505  max(|x|)= 5.41  |dr|= 0.0505  eig= -0.0383  seig= 8.43e-06
Negative hessians found [-0.08812775 -0.03804166]
    imic 9(10)  |g|= 0.0305  |dxi|= 0.0505  max(|x|)= 4.44  |dr|= 0.101  eig= -0.04  seig= 8.36e-06
Negative hessians found [-0.08853667 -0.03810688]
    imic 10(11)  |g|= 0.0308  |dxi|= 0.0505  max(|x|)= 3.72  |dr|= 0.151  eig= -0.041  seig= 8.1e-06
Negative hessians found [-0.09213758 -0.07325314 -0.03789342]
    imic 11(12)  |g|= 0.0313  |dxi|= 0.0506  max(|x|)= 3.25  |dr|= 0.202  eig= -0.0417  seig= 7.85e-06
Negative hessians found [-0.10003439 -0.08595157 -0.03797092]
    imic 12(13)  |g|= 0.0318  |dxi|= 0.0506  max(|x|)= 2.89  |dr|= 0.252  eig= -0.043  seig= 7.12e-06
Negative hessians found [-0.10006533 -0.09116429 -0.03797567]
    imic 13(14)  |g|= 0.0325  |dxi|= 0.0505  max(|x|)= 2.63  |dr|= 0.303  eig= -0.0442  seig= 2.1e-06
E1 = -121.33484965764137  Ecoul = 50.46323759527518
Adjust keyframe g_orb to |g|= 0.0998  |g-correction|=0.117  E=-70.8716120624 dE=0.014708
Out of trust region. Restore previouse step
    tot inner=13  18 JK  |g|= 0.0318  |u-1|= 0.0505
    CPU time for aug_hess in 13 inner iters    250.89 sec, wall time      1.97 sec
Overlap to initial guess, SVD = [0.99994548 0.99994547 0.99988371 0.99966136 0.96752695 0.96717069
 0.96615621]
Overlap to last step, SVD = [0.99994548 0.99994547 0.99988371 0.99966136 0.96752695 0.96717069
 0.96615621]
  HOMO = -0.0821356001878863  LUMO = 0.0308024548681121
                  Roothaan           | alpha              | beta
  Highest 2-occ = -0.247575585753574 | -0.247291761819663 |  -0.18861742699548
  Lowest 0-occ =  0.0308024548681121 | 0.0261894202143857 | 0.0354154895218373
  1-occ =         -0.113203468838713 | -0.517706978948054 |  0.235224172175873
  1-occ =         -0.0821614347352006 | -0.475578949748788 |  0.309135427160383
  1-occ =         -0.0821356001878863 | -0.475447099824877 |  0.309056486373199
  Roothaan mo_energy =
[-3.22515847 -2.03037279 -2.02161803 -2.02160923 -0.24757559 -0.11320347
 -0.08216143 -0.0821356   0.03080245  0.03493561  0.03493987  0.12413477
  0.12413823  0.15782647  0.17795199  0.18043384  0.18046233  0.20847356
  0.21474182  0.21474727  0.23890656  0.23890918  0.7058296   0.72069681
  0.72079465  0.76486122  0.76486498  0.80772706  1.12590317  1.14467461
  1.14469153  1.73661175  1.74191438  1.74192132  1.74976595  1.74980086
  1.75241132  1.75241606  2.81287478  2.84003776  2.84014325  2.85924197
  2.85926077  3.94085783  4.95174437  4.98290768  4.98293897  6.6903321
  6.69754323  6.6975575   6.71119266  6.71121944  6.71164134  6.71164863
  8.2539184   8.25392951  8.25407481  8.25535192  8.25539643  8.26365891
  8.26368362  8.28792375  8.28792375]
E1 = -121.22643471641831  Ecoul = 50.34978581140422
macro= 0  E= -70.8766489050141  delta_E= -0.142899  |g|= 0.0300224  4 KF 18 JK
    CPU time for cycle= 1    274.92 sec, wall time      2.16 sec
    |g|= 0.0803 (keyframe), |g-correction|= 0.0953
    imic 1(1)  |g|= 0.0632  |dxi|= 0.0505  max(|x|)= 0.213  |dr|= 0.0505  eig= -0.00966  seig= 0.00255
    imic 2(2)  |g|= 0.0459  |dxi|= 0.051  max(|x|)= 0.189  |dr|= 0.101  eig= -0.00699  seig= 0.00093
    imic 3(3)  |g|= 0.0298  |dxi|= 0.0517  max(|x|)= 0.147  |dr|= 0.152  eig= -0.0041  seig= 5.63e-05
    imic 4(4)  |g|= 0.0191  |dxi|= 0.0535  max(|x|)= 0.109  |dr|= 0.204  eig= -0.00196  seig= 1.92e-05
Negative hessians found [-0.0228005]
Negative hessians found [-0.03183641]
    imic 5(6)  |g|= 0.00469  |dxi|= 0.105  max(|x|)= 0.0535  |dr|= 0.262  eig= -0.000231  seig= 1.32e-05
E1 = -121.28852950163856  Ecoul = 50.40237407021201
Adjust keyframe g_orb to |g|= 0.0391  |g-correction|=0.0398  E=-70.8861554314 dE=-0.0095065
Out of trust region. Restore previouse step
    tot inner=5  8 JK  |g|= 0.0191  |u-1|= 0.105
    CPU time for aug_hess in 5 inner iters    140.38 sec, wall time      1.10 sec
Overlap to initial guess, SVD = [0.99996448 0.99996447 0.99989408 0.99988075 0.96634792 0.96531376
 0.96000083]
Overlap to last step, SVD = [0.99998315 0.99992945 0.99976222 0.99944087]
  HOMO = -0.0822061750968168  LUMO = 0.0312526308347409
                  Roothaan           | alpha              | beta
  Highest 2-occ = -0.232043231078418 | -0.243342910943735 | -0.220484335970335
  Lowest 0-occ =  0.0312526308347409 | 0.0290445181836328 | 0.0334607434858489
  1-occ =         -0.119797752144771 |  -0.53153524899763 |  0.287874710282801
  1-occ =         -0.0822311249058923 | -0.477140153603495 |  0.309396765602139
  1-occ =         -0.0822061750968168 | -0.477111264807012 |  0.309446735295189
  Roothaan mo_energy =
[-3.22667467 -2.03075414 -2.02285673 -2.02284824 -0.23204323 -0.11979775
 -0.08223112 -0.08220618  0.03125263  0.03478066  0.03478346  0.12411699
  0.12411939  0.15720429  0.17691496  0.17991072  0.17993375  0.20831301
  0.21421595  0.21422111  0.23869388  0.23869563  0.70400274  0.71979177
  0.71979193  0.76504995  0.7650552   0.8067234   1.12635543  1.14334303
  1.14335822  1.73823417  1.7429947   1.74300345  1.7474497   1.74754185
  1.75193316  1.75193361  2.81187016  2.83999131  2.84001696  2.85879695
  2.85881699  3.9398216   4.95084146  4.98212614  4.98215634  6.68845173
  6.69584461  6.69586606  6.71063445  6.71063749  6.71156787  6.7116137
  8.25216414  8.25222213  8.2522487   8.25386985  8.2539048   8.26249199
  8.2625347   8.28690964  8.28690964]
E1 = -121.2175931168072  Ecoul = 50.33081164510698
macro= 1  E= -70.8867814717002  delta_E= -0.0101326  |g|= 0.0802953  2 KF 8 JK
    CPU time for cycle= 2    132.20 sec, wall time      1.04 sec
    |g|= 0.0305 (keyframe), |g-correction|= 0.0257
    imic 1(1)  |g|= 0.032  |dxi|= 0.0349  max(|x|)= 0.0167  |dr|= 0.0349  eig= -4.08e-05  seig= 0.011
    imic 2(2)  |g|= 0.041  |dxi|= 0.0979  max(|x|)= 0.0566  |dr|= 0.131  eig= -0.00072  seig= 0.000377
Negative hessians found [-0.02079619]
    imic 3(3)  |g|= 0.0329  |dxi|= 0.0954  max(|x|)= 1.95  |dr|= 0.226  eig= -0.0224  seig= 0.000245
Negative hessians found [-0.03175188]
    imic 4(4)  |g|= 0.0339  |dxi|= 0.0962  max(|x|)= 1.78  |dr|= 0.319  eig= -0.0346  seig= 0.000239
Negative hessians found [-0.0326941]
    imic 5(5)  |g|= 0.0344  |dxi|= 0.0978  max(|x|)= 1.42  |dr|= 0.415  eig= -0.0375  seig= 0.000213
E1 = -121.07030999109895  Ecoul = 50.177725419787514
Adjust keyframe g_orb to |g|= 0.0417  |g-correction|=0.0292  E=-70.8925845713 dE=-0.0058031
Negative hessians found [-0.03290884]
    imic 6(6)  |g|= 0.0422  |dxi|= 0.0994  max(|x|)= 1.78  |dr|= 0.0994  eig= -0.0357  seig= 5.7e-05
Negative hessians found [-0.03300107]
    imic 7(7)  |g|= 0.0414  |dxi|= 0.102  max(|x|)= 1.37  |dr|= 0.201  eig= -0.0378  seig= 1.94e-05
Negative hessians found [-0.03305917]
    imic 8(8)  |g|= 0.0415  |dxi|= 0.101  max(|x|)= 1.18  |dr|= 0.302  eig= -0.0401  seig= 5.2e-06
Negative hessians found [-0.03306091]
    imic 9(9)  |g|= 0.0418  |dxi|= 0.101  max(|x|)= 1.04  |dr|= 0.402  eig= -0.0425  seig= 1.86e-07
Negative hessians found [-0.03306318]
    imic 10(10)  |g|= 0.0423  |dxi|= 0.101  max(|x|)= 0.952  |dr|= 0.503  eig= -0.0452  seig= 1.98e-08
E1 = -121.10478401557324  Ecoul = 50.20969630395131
Adjust keyframe g_orb to |g|= 0.124  |g-correction|=0.107  E=-70.8950877116 dE=-0.0025031
Out of trust region. Restore previouse step
    tot inner=10  13 JK  |g|= 0.0418  |u-1|= 0.101
    CPU time for aug_hess in 10 inner iters    111.97 sec, wall time      0.87 sec
Overlap to initial guess, SVD = [0.9998928  0.99988651 0.99988314 0.99986593 0.96517808 0.7941113
 0.78520634]
Overlap to last step, SVD = [0.99998407 0.99996386 0.99995103 0.99994476 0.99964233 0.85108935
 0.82789727]
  HOMO = -0.108981236896645  LUMO = 0.0332107761902103
                  Roothaan           | alpha              | beta
  Highest 2-occ = -0.233576594827558 | -0.244492411258887 | -0.220003330554177
  Lowest 0-occ =  0.0332107761902103 | 0.0301075271320313 | 0.0361908573956353
  1-occ =         -0.114440084174257 | -0.512364045433415 |  0.287608520646581
  1-occ =         -0.112474634655864 | -0.509625297053612 |  0.288702849265244
  1-occ =         -0.108981236896645 | -0.508118507928531 |  0.288424155197493
  Roothaan mo_energy =
[-3.23912214 -2.03783406 -2.03717441 -2.03652004 -0.23357659 -0.11444008
 -0.11247463 -0.10898124  0.03321078  0.03348971  0.03352507  0.12492195
  0.12516386  0.15667758  0.178494    0.17870275  0.17874495  0.211016
  0.21151137  0.21201434  0.23906072  0.23935379  0.71124202  0.71195334
  0.71211277  0.76493293  0.76532702  0.80446446  1.13279437  1.13424767
  1.13586508  1.73343247  1.74009688  1.74175993  1.7420432   1.74721596
  1.74761378  1.74785378  2.81500947  2.81631379  2.81910496  2.85384602
  2.85431326  3.92943702  4.9572854   4.95985925  4.96440931  6.6794374
  6.68518499  6.69053981  6.69158325  6.69605076  6.69655264  6.69683916
  8.24592533  8.24766634  8.24807344  8.24826664  8.25184541  8.25233673
  8.25798879  8.2599343   8.26105589]
E1 = -121.09703275898048  Ecoul = 50.2005500160796
macro= 2  E= -70.8964827429009  delta_E= -0.00970127  |g|= 0.0416512  3 KF 13 JK
    CPU time for cycle= 3    117.11 sec, wall time      0.92 sec
    |g|= 0.101 (keyframe), |g-correction|= 0.0805
    imic 1(1)  |g|= 0.0875  |dxi|= 0.0669  max(|x|)= 0.0332  |dr|= 0.0669  eig= -0.000261  seig= 0.0101
    imic 2(2)  |g|= 0.0225  |dxi|= 0.0517  max(|x|)= 0.0216  |dr|= 0.0395  eig= -0.00149  seig= 0.000604
    imic 3(3)  |g|= 0.00933  |dxi|= 0.013  max(|x|)= 0.00991  |dr|= 0.0436  eig= -0.00012  seig= 6.49e-05
E1 = -121.15769840799103  Ecoul = 50.259350031782155
Adjust keyframe g_orb to |g|= 0.00891  |g-correction|=0.00104  E=-70.8983483762 dE=-0.0018656
    imic 4(4)  |g|= 0.00593  |dxi|= 0.0126  max(|x|)= 0.00914  |dr|= 0.0126  eig= -3.59e-05  seig= 1.05e-05
    imic 5(5)  |g|= 0.00355  |dxi|= 0.00784  max(|x|)= 0.00394  |dr|= 0.019  eig= -1.52e-05  seig= 3.38e-06
    imic 6(6)  |g|= 0.0038  |dxi|= 0.0103  max(|x|)= 0.0055  |dr|= 0.0254  eig= -1.18e-05  seig= 1.26e-06
    imic 7(7)  |g|= 0.0015  |dxi|= 0.0105  max(|x|)= 0.00556  |dr|= 0.0329  eig= -9.31e-06  seig= 4.39e-07
    imic 8(8)  |g|= 0.000204  |dxi|= 0.000795  max(|x|)= 0.000355  |dr|= 0.0334  eig= -4.65e-07  seig= 9.27e-08
E1 = -121.16953164854297  Ecoul = 50.271112722724084
Adjust keyframe g_orb to |g|= 0.00113  |g-correction|=0.00108  E=-70.8984189258 dE=-7.055e-05
Out of trust region. Restore previouse step
    tot inner=8  11 JK  |g|= 0.0015  |u-1|= 0.000795
    CPU time for aug_hess in 8 inner iters     91.62 sec, wall time      0.72 sec
Overlap to initial guess, SVD = [0.99993088 0.9999308  0.99993022 0.99990969 0.96508405 0.80371319
 0.793146  ]
Overlap to last step, SVD = [0.9999779  0.99996593 0.99996164 0.99966582 0.99924735]
  HOMO = -0.105437688791336  LUMO = 0.0336609659630383
                  Roothaan           | alpha              | beta
  Highest 2-occ = -0.232146567597175 | -0.243462782520144 | -0.220830181568648
  Lowest 0-occ =  0.0336609659630383 | 0.0306116998715298 | 0.0367102320545463
  1-occ =         -0.105491276867062 | -0.505503026566256 |  0.294534155499243
  1-occ =         -0.105452480647809 | -0.505580614785464 |   0.29458748273678
  1-occ =         -0.105437688791336 | -0.505478953156394 |  0.294581155031442
  Roothaan mo_energy =
[-3.2320338  -2.03047273 -2.03044691 -2.03043551 -0.23214657 -0.10549128
 -0.10545248 -0.10543769  0.03366097  0.0336617   0.03366547  0.12649891
  0.12650484  0.15702806  0.17858176  0.17860473  0.17861322  0.21207579
  0.21207682  0.2120852   0.24173762  0.24174673  0.71245368  0.71252886
  0.71256182  0.76774506  0.76775509  0.80584767  1.13656291  1.13656668
  1.13659188  1.73594038  1.74368674  1.74369331  1.7436984   1.74983842
  1.74984475  1.74985163  2.82237765  2.82239993  2.82244912  2.86046232
  2.86048708  3.93520977  4.96689038  4.966897    4.96694738  6.6873369
  6.69643679  6.69646639  6.69646855  6.70340146  6.7034265   6.70343103
  8.25239117  8.25548178  8.25549358  8.25552509  8.25773379  8.25774811
  8.26418267  8.26418795  8.26421091]
E1 = -121.16920410542161  Ecoul = 50.27078548374804
macro= 3  E= -70.8984186216736  delta_E= -0.00193588  |g|= 0.00890917  3 KF 11 JK
    CPU time for cycle= 4     86.00 sec, wall time      0.67 sec
    |g|= 0.00183 (keyframe), |g-correction|= 0.00107
    imic 1(1)  |g|= 0.00112  |dxi|= 0.000656  max(|x|)= 0.000293  |dr|= 0.000656  eig= -3.17e-07  seig= 6.32e-07
    imic 2(2)  |g|= 0.000311  |dxi|= 0.000377  max(|x|)= 0.000145  |dr|= 0.000677  eig= -2.73e-07  seig= 9.81e-08
    imic 3(3)  |g|= 0.000168  |dxi|= 0.000179  max(|x|)= 7.2e-05  |dr|= 0.000692  eig= -2.69e-08  seig= 1.31e-08
E1 = -121.16842298291276  Ecoul = 50.27000374400818
Adjust keyframe g_orb to |g|= 0.000169  |g-correction|=1.01e-05  E=-70.8984192389 dE=-6.1723e-07
    imic 4(4)  |g|= 0.000131  |dxi|= 0.000304  max(|x|)= 0.000143  |dr|= 0.000304  eig= -1.75e-08  seig= 3.09e-09
    imic 5(5)  |g|= 0.000131  |dxi|= 0.000445  max(|x|)= 0.000242  |dr|= 0.00072  eig= -1.71e-08  seig= 1.68e-09
    imic 6(6)  |g|= 3.55e-05  |dxi|= 0.000119  max(|x|)= 6.19e-05  |dr|= 0.000819  eig= -3.3e-09  seig= 6.32e-10
    imic 7(7)  |g|= 1.04e-05  |dxi|= 6.13e-05  max(|x|)= 3.42e-05  |dr|= 0.000847  eig= -7.81e-10  seig= 9.94e-11
    tot inner=7  9 JK  |g|= 1.04e-05  |u-1|= 0.000847
    CPU time for aug_hess in 7 inner iters     57.82 sec, wall time      0.45 sec
Overlap to initial guess, SVD = [0.99993072 0.99993072 0.99993072 0.99990952 0.96517924 0.80362015
 0.79335843]
Overlap to last step, SVD = []
  HOMO = -0.105539874986973  LUMO = 0.0336600683129634
                  Roothaan           | alpha              | beta
  Highest 2-occ = -0.232153974435391 | -0.243471495385513 | -0.220836453478269
  Lowest 0-occ =  0.0336600683129634 | 0.0306101892486963 | 0.0367099473772299
  1-occ =         -0.105542077342005 | -0.505584097084153 |  0.294500742329801
  1-occ =            -0.105541617505 | -0.505584292032669 |  0.294501122063187
  1-occ =         -0.105539874986973 | -0.505583084428642 |  0.294502219053447
  Roothaan mo_energy =
[-3.2321378  -2.03054876 -2.03054866 -2.03054832 -0.23215397 -0.10554208
 -0.10554162 -0.10553987  0.03366007  0.03366011  0.03366025  0.12647861
  0.12647864  0.15702357  0.17859813  0.17859821  0.17859836  0.21207324
  0.2120733   0.21207361  0.24169815  0.2416982   0.71250202  0.71250222
  0.71250246  0.76770834  0.76770837  0.80583073  1.13654613  1.13654632
  1.13654719  1.73591464  1.74366804  1.74366821  1.74366827  1.74982103
  1.7498211   1.74982127  2.82232718  2.82232737  2.82232818  2.86037703
  2.86037716  3.93512516  4.96681675  4.96681709  4.96681884  6.68723356
  6.69635158  6.69635241  6.69635263  6.70331311  6.70331316  6.70331329
  8.25231392  8.25542168  8.25542197  8.25542204  8.25766186  8.25766194
  8.26411231  8.26411248  8.26411331]
E1 = -121.16821204145546  Ecoul = 50.2697927638555
macro= 4  E= -70.8984192776  delta_E= -6.55926e-07  |g|= 0.000168797  2 KF 9 JK
    CPU time for cycle= 5     59.85 sec, wall time      0.47 sec
    |g|= 1.05e-05 (keyframe), |g-correction|= 2.1e-06
    imic 1(1)  |g|= 9.66e-06  |dxi|= 2.18e-06  max(|x|)= 1.21e-06  |dr|= 2.18e-06  eig= -9.84e-13  seig= 3.76e-09
    tot inner=1  2 JK  |g|= 9.66e-06  |u-1|= 2.18e-06
    CPU time for aug_hess in 1 inner iters     38.44 sec, wall time      0.30 sec
Overlap to initial guess, SVD = [0.99993072 0.99993072 0.99993072 0.99990952 0.96517923 0.80362036
 0.79335797]
Overlap to last step, SVD = []
  HOMO = -0.105539899303734  LUMO = 0.0336600639176654
                  Roothaan           | alpha              | beta
  Highest 2-occ = -0.232153977571233 |   -0.2434714982748 | -0.220836456852704
  Lowest 0-occ =  0.0336600639176654 | 0.0306101875966142 | 0.0367099402387174
  1-occ =         -0.105542045387184 | -0.505584139387008 |  0.294500782572913
  1-occ =         -0.105541671579018 | -0.505584272201331 |  0.294501070702788
  1-occ =         -0.105539899303734 | -0.505583125844095 |  0.294502197065533
  Roothaan mo_energy =
[-3.23213782 -2.03054878 -2.03054867 -2.03054834 -0.23215398 -0.10554205
 -0.10554167 -0.1055399   0.03366006  0.03366011  0.03366025  0.1264786
  0.12647863  0.15702357  0.17859811  0.17859821  0.17859838  0.21207324
  0.21207331  0.2120736   0.24169815  0.24169818  0.71250201  0.7125022
  0.71250248  0.76770832  0.76770838  0.80583073  1.13654613  1.13654632
  1.13654716  1.73591462  1.74366805  1.74366818  1.74366825  1.74982099
  1.74982109  1.74982127  2.82232715  2.82232737  2.82232815  2.86037704
  2.86037713  3.93512515  4.96681675  4.96681708  4.96681881  6.68723354
  6.69635157  6.69635241  6.69635258  6.70331311  6.70331315  6.70331325
  8.2523139   8.25542167  8.25542194  8.25542201  8.25766185  8.25766191
  8.2641123   8.26411246  8.26411328]
E1 = -121.16821184982072  Ecoul = 50.269792572219714
macro= 5  E= -70.898419277601  delta_E= -1.03739e-12  |g|= 1.04606e-05  1 KF 2 JK
    CPU time for cycle= 6     40.87 sec, wall time      0.32 sec
Canonicalize SCF orbitals
macro X = 6  E=-70.898419277601  |g|= 1.04606e-05  total 16 KF 68 JK
    CPU time for Second order SCF    986.31 sec, wall time     11.34 sec
converged SCF energy = -70.898419277601
