#INFO: **** input file is /home/nkousuke/lustre/toBeSync/turboRVB/05turbo-genius-development/turbogenius_paper/04data/sanity_checks/03pyscf_HF_turbo_VMC_via_trexio/00open_boundary/results/C/pyscf-HF-workflow/run.py ****

from pyscf_wrapper import Pyscf_wrapper

# input variables
pyscf_chkfile="pyscf.chk"
structure_file="C.xyz"

# input variables
omp_num_threads=128
charge=0
spin=2
basis="ccecp-ccpv6z"
ecp="ccecp"
scf_method="HF"
dft_xc="NA"
solver_newton=False
MP2_flag=False
CCSD_flag=False
pyscf_output="out.pyscf"
twist_average=False
exp_to_discard=0.0
kpt=[0.0, 0.0, 0.0]
kpt_grid=[1, 1, 1]
smearing_method="fermi"
smearing_sigma=0.0

pyscf_calc=Pyscf_wrapper(
                        structure_file=structure_file,
                        chkfile=pyscf_chkfile,
                        )

pyscf_calc.run_pyscf(
                  omp_num_threads=omp_num_threads,
                  charge=charge,
                  spin=spin,
                  basis=basis,
                  ecp=ecp,
                  scf_method=scf_method,
                  dft_xc=dft_xc,
                  solver_newton=solver_newton,
                  MP2_flag=MP2_flag,
                  CCSD_flag=CCSD_flag,
                  pyscf_output=pyscf_output,
                  twist_average=twist_average,
                  exp_to_discard=exp_to_discard,
                  kpt=kpt,
                  kpt_grid=kpt_grid,
                  smearing_method=smearing_method,
                  smearing_sigma=smearing_sigma
                  )
                #INFO: ******************** input file end ********************


System: uname_result(system='Linux', node='spcc-145', release='5.4.0-66-generic', version='#74-Ubuntu SMP Wed Jan 27 22:54:38 UTC 2021', machine='x86_64', processor='x86_64')  Threads 128
Python 3.7.3 (default, Mar 27 2019, 22:11:17) 
[GCC 7.3.0]
numpy 1.20.1  scipy 1.7.3
Date: Mon Dec 19 18:02:53 2022
PySCF version 2.0.1
PySCF path  /home/nkousuke/application/anaconda3/lib/python3.7/site-packages/pyscf

[CONFIG] conf_file /home/nkousuke/.pyscf_conf.py
[INPUT] verbose = 5
[INPUT] max_memory = 506568.890625 
[INPUT] num. atoms = 1
[INPUT] num. electrons = 4
[INPUT] charge = 0
[INPUT] spin (= nelec alpha-beta = 2S) = 2
[INPUT] symmetry False subgroup None
[INPUT] Mole.unit = A
[INPUT]  1 C      0.000000000000   0.000000000000   0.000000000000 AA    0.000000000000   0.000000000000   0.000000000000 Bohr
[INPUT] ---------------- BASIS SET ---------------- 
[INPUT] l, kappa, [nprim/nctr], expnt,             c_1 c_2 ...
[INPUT] C
[INPUT] 0    0    [9    /1   ]  13.073594         0.0051583
                                6.541187          0.0603424
                                4.573411          -0.1978471
                                1.637494          -0.081034
                                0.819297          0.2321726
                                0.409924          0.2914643
                                0.2313            0.4336405
                                0.102619          0.213194
                                0.051344          0.0049848
[INPUT] 0    0    [1    /1   ]  4.510706             1
[INPUT] 0    0    [1    /1   ]  1.257512             1
[INPUT] 0    0    [1    /1   ]  0.505925             1
[INPUT] 0    0    [1    /1   ]  0.252653             1
[INPUT] 0    0    [1    /1   ]  0.097183             1
[INPUT] 1    0    [9    /1   ]  9.934169          0.0209076
                                3.886955          0.0572698
                                1.871016          0.1122682
                                0.935757          0.2130082
                                0.468003          0.2835815
                                0.239473          0.3011207
                                0.117063          0.2016934
                                0.058547          0.0453575
                                0.029281          0.0029775
[INPUT] 1    0    [1    /1   ]  1.394825             1
[INPUT] 1    0    [1    /1   ]  1.118776             1
[INPUT] 1    0    [1    /1   ]  0.414159             1
[INPUT] 1    0    [1    /1   ]  0.189484             1
[INPUT] 1    0    [1    /1   ]  0.077118             1
[INPUT] 2    0    [1    /1   ]  4.570118             1
[INPUT] 2    0    [1    /1   ]  1.896967             1
[INPUT] 2    0    [1    /1   ]  1.00344              1
[INPUT] 2    0    [1    /1   ]  0.444341             1
[INPUT] 2    0    [1    /1   ]  0.174421             1
[INPUT] 3    0    [1    /1   ]  2.421007             1
[INPUT] 3    0    [1    /1   ]  1.341662             1
[INPUT] 3    0    [1    /1   ]  0.667529             1
[INPUT] 3    0    [1    /1   ]  0.281253             1
[INPUT] 4    0    [1    /1   ]  2.358234             1
[INPUT] 4    0    [1    /1   ]  1.258225             1
[INPUT] 4    0    [1    /1   ]  0.544354             1
[INPUT] 5    0    [1    /1   ]  1.949404             1
[INPUT] 5    0    [1    /1   ]  0.860563             1
[INPUT] 6    0    [1    /1   ]  1.478231             1

nuclear repulsion = 0
number of shells = 27
number of NR pGTOs = 171
number of NR cGTOs = 139
basis = ccecp-ccpv6z
ecp = ccecp
CPU time:         6.99


******** <class 'pyscf.scf.rohf.ROHF'> ********
method = ROHF-RHF
initial guess = minao
damping factor = 0
level_shift factor = 0
DIIS = <class 'pyscf.scf.diis.CDIIS'>
diis_start_cycle = 1
diis_space = 8
SCF conv_tol = 1e-09
SCF conv_tol_grad = None
SCF max_cycles = 200
direct_scf = True
direct_scf_tol = 1e-13
chkfile to save SCF result = pyscf.chk
max_memory 506568 MB (current use 106 MB)
num. doubly occ = 1  num. singly occ = 2
Set gradient conv threshold to 3.16228e-05
E1 = -8.343550347842323  Ecoul = 3.404767127659761
init E= -4.93878322018256
cond(S) = 25036.805585453018
    CPU time for initialize scf    208.19 sec, wall time      2.19 sec

WARN: HOMO -0.0774601152071819 >= LUMO -0.0774601152071824

                  Roothaan           | alpha              | beta
  Highest 2-occ = -0.707186432045371 |  -0.70718643204537 |  -0.70718643204537
  Lowest 0-occ =  -0.0774601152071824 | -0.0774601152071854 | -0.0774601152071854
  1-occ =         -0.0774601152071844 | -0.0774601152071858 | -0.0774601152071858
  1-occ =         -0.0774601152071819 | -0.0774601152071858 | -0.0774601152071858
  Roothaan mo_energy =
[-0.70718643 -0.07746012 -0.07746012 -0.07746012  0.23609229  0.23609229
  0.23609229  0.25206622  0.48894863  0.48894863  0.48894863  0.48894863
  0.48894863  0.88660685  0.88660685  0.88660685  1.08674141  1.08674141
  1.08674141  1.08674141  1.08674141  1.08674141  1.08674141  1.29340035
  1.46952001  1.46952001  1.46952001  1.46952001  1.46952001  2.39067389
  2.39067389  2.39067389  2.64536497  2.64536497  2.64536497  2.64536497
  2.64536497  2.64536497  2.64536497  2.64536497  2.64536497  2.99124222
  2.99124222  2.99124222  2.99124222  2.99124222  2.99124222  2.99124222
  3.65794399  3.65794399  3.65794399  3.65794399  3.65794399  4.2504438
  5.12374616  5.12374616  5.12374616  5.12374616  5.12374616  5.12374616
  5.12374616  5.12374616  5.12374616  5.12374616  5.12374616  5.8030727
  5.8030727   5.8030727   6.82058586  6.82058586  6.82058586  6.82058586
  6.82058586  6.82058586  6.82058586  6.9728056   6.9728056   6.9728056
  6.9728056   6.9728056   6.9728056   6.9728056   6.9728056   6.9728056
  8.38160245  8.38160245  8.38160245  8.38160245  8.38160245 10.65171037
 10.65171037 10.65171037 10.65171037 10.65171037 10.65171037 10.65171037
 10.65171037 10.65171037 10.65171037 10.65171037 10.65171037 10.65171037
 13.4761899  13.4761899  13.4761899  13.51413573 13.51603337 13.51603337
 13.51603337 13.51603337 13.51603337 13.51603337 13.51603337 13.51603337
 13.51603337 13.51603337 13.51603337 14.45451918 14.45451918 14.45451918
 14.45451918 14.45451918 14.45451918 14.45451918 15.64719777 15.64719777
 15.64719777 15.64719777 15.64719777 15.64719777 15.64719777 15.64719777
 15.64719777 19.53659728 19.53659728 19.53659728 19.53659728 19.53659728
 36.90255315]
E1 = -8.002528094111353  Ecoul = 2.7355857639688184
cycle= 1 E= -5.26694233014253  delta_E= -0.328  |g|= 0.193  |ddm|= 0.913
    CPU time for cycle= 1    108.84 sec, wall time      0.95 sec
  HOMO = -0.23831867625338  LUMO = -0.037296928445343
                  Roothaan           | alpha              | beta
  Highest 2-occ = -0.809183385834578 | -0.910717138281827 | -0.707649633387329
  Lowest 0-occ =  -0.037296928445343 | -0.0594266090717927 | -0.0151672478188799
  1-occ =         -0.238318676253385 |  -0.47342811555038 | 0.0551351136139583
  1-occ =          -0.23831867625338 | -0.473428115550378 | 0.0551351136139572
  Roothaan mo_energy =
[-0.80918339 -0.23831868 -0.23831868 -0.03729693  0.21829403  0.22257443
  0.23248348  0.23248348  0.45596915  0.45792302  0.45792302  0.4641992
  0.4641992   0.8255959   0.83666546  0.83666546  1.04697605  1.04931801
  1.04931801  1.05667647  1.05667647  1.06945918  1.06945918  1.22450791
  1.39294607  1.39731577  1.39731577  1.41149762  1.41149762  2.27811174
  2.30089249  2.30089249  2.57801005  2.5803136   2.5803136   2.58724093
  2.58724093  2.59884259  2.59884259  2.61520454  2.61520454  2.89935074
  2.90330272  2.90330272  2.91537331  2.91537331  2.93595934  2.93595934
  3.53123913  3.53890305  3.53890305  3.56225749  3.56225749  4.12398039
  5.03160948  5.03350039  5.03350039  5.03918167  5.03918167  5.04867915
  5.04867915  5.06203683  5.06203683  5.07931835  5.07931835  5.63855781
  5.67275794  5.67275794  6.67611297  6.68103464  6.68103464  6.69592619
  6.69592619  6.72121785  6.72121785  6.84122342  6.84440425  6.84440425
  6.85394731  6.85394731  6.86985544  6.86985544  6.89213739  6.89213739
  8.20591555  8.21515039  8.21515039  8.24336291  8.24336291 10.51908151
 10.52068391 10.52068391 10.52549451 10.52549451 10.53352353 10.53352353
 10.54478812 10.54478812 10.5593126  10.5593126  10.57712876 10.57712876
 13.26799515 13.29757702 13.29757702 13.32755295 13.34968528 13.3519641
 13.3519641  13.35880521 13.35880521 13.37022256 13.37022256 13.38623959
 13.38623959 13.40688957 13.40688957 14.26050517 14.26535547 14.26535547
 14.27998964 14.27998964 14.30472539 14.30472539 15.45882076 15.46204531
 15.46204531 15.47172395 15.47172395 15.48787175 15.48787175 15.51051433
 15.51051433 19.31722108 19.32537907 19.32537907 19.35011687 19.35011687
 36.67844072]
E1 = -8.385570944112413  Ecoul = 3.0733395436229998
cycle= 2 E= -5.31223140048941  delta_E= -0.0453  |g|= 0.0783  |ddm|= 0.77
    CPU time for cycle= 2    105.97 sec, wall time      0.96 sec
  HOMO = -0.140310704925433  LUMO = 0.0322484557489081
                  Roothaan           | alpha              | beta
  Highest 2-occ = -0.718860241137513 | -0.818444939836734 |  -0.57755748217507
  Lowest 0-occ =  0.0322484557489081 | 0.0265200759763314 | 0.0663729637283455
  1-occ =         -0.140310704925437 | -0.422324283522331 |  0.183516321667331
  1-occ =         -0.140310704925433 | -0.422324283522333 |  0.183516321667331
  Roothaan mo_energy =
[-7.18860241e-01 -1.40310705e-01 -1.40310705e-01  3.22484557e-02
  2.26516623e-01  2.26516623e-01  2.47537407e-01  2.53021935e-01
  4.81107186e-01  4.83365319e-01  4.83365319e-01  4.90756988e-01
  4.90756988e-01  8.79714246e-01  8.79714246e-01  8.83989270e-01
  1.07398137e+00  1.07626793e+00  1.07626793e+00  1.08335857e+00
  1.08335857e+00  1.09574024e+00  1.09574024e+00  1.28508357e+00
  1.45495134e+00  1.45905030e+00  1.45905030e+00  1.47250120e+00
  1.47250120e+00  2.36957174e+00  2.38931356e+00  2.38931356e+00
  2.62426508e+00  2.62660379e+00  2.62660379e+00  2.63364003e+00
  2.63364003e+00  2.64543463e+00  2.64543463e+00  2.66209037e+00
  2.66209037e+00  2.96715799e+00  2.97135286e+00  2.97135286e+00
  2.98417033e+00  2.98417033e+00  3.00604024e+00  3.00604024e+00
  3.63257783e+00  3.64077293e+00  3.64077293e+00  3.66578300e+00
  3.66578300e+00  4.23974662e+00  5.09643089e+00  5.09844394e+00
  5.09844394e+00  5.10449287e+00  5.10449287e+00  5.11460727e+00
  5.11460727e+00  5.12883762e+00  5.12883762e+00  5.14725710e+00
  5.14725710e+00  5.76689740e+00  5.80494286e+00  5.80494286e+00
  6.78812300e+00  6.79375990e+00  6.79375990e+00  6.81082892e+00
  6.81082892e+00  6.83986077e+00  6.83986077e+00  6.93948218e+00
  6.94308605e+00  6.94308605e+00  6.95389956e+00  6.95389956e+00
  6.97192999e+00  6.97192999e+00  6.99719519e+00  6.99719519e+00
  8.34868555e+00  8.35948267e+00  8.35948267e+00  8.39253135e+00
  8.39253135e+00  1.06169140e+01  1.06187312e+01  1.06187312e+01
  1.06241867e+01  1.06241867e+01  1.06332929e+01  1.06332929e+01
  1.06460704e+01  1.06460704e+01  1.06625483e+01  1.06625483e+01
  1.06827651e+01  1.06827651e+01  1.34393454e+01  1.34746102e+01
  1.34746102e+01  1.34783337e+01  1.34810363e+01  1.34810363e+01
  1.34891497e+01  1.34891497e+01  1.35010372e+01  1.35026903e+01
  1.35026903e+01  1.35216859e+01  1.35216859e+01  1.35461763e+01
  1.35461763e+01  1.44188907e+01  1.44247769e+01  1.44247769e+01
  1.44425440e+01  1.44425440e+01  1.44726273e+01  1.44726273e+01
  1.56094798e+01  1.56133964e+01  1.56133964e+01  1.56251523e+01
  1.56251523e+01  1.56447664e+01  1.56447664e+01  1.56722712e+01
  1.56722712e+01  1.95026536e+01  1.95127742e+01  1.95127742e+01
  1.95435109e+01  1.95435109e+01  3.68873045e+01]
E1 = -8.344213939786606  Ecoul = 3.03010334510755
cycle= 3 E= -5.31411059467906  delta_E= -0.00188  |g|= 0.0191  |ddm|= 0.164
    CPU time for cycle= 3     91.37 sec, wall time      0.74 sec
  HOMO = -0.131023189469151  LUMO = 0.0383567123085043
                  Roothaan           | alpha              | beta
  Highest 2-occ =   -0.7062786816842 | -0.827876095900029 | -0.589579150001922
  Lowest 0-occ =  0.0383567123085043 | 0.0180920366754848 |  0.056876525106647
  1-occ =         -0.131023189469159 | -0.433306462583629 |  0.171763591970614
  1-occ =         -0.131023189469151 | -0.433306462583628 |  0.171763591970615
  Roothaan mo_energy =
[-0.70627868 -0.13102319 -0.13102319  0.03835671  0.2249165   0.2249165
  0.25220267  0.257628    0.48454682  0.48685158  0.48685158  0.49453854
  0.49453854  0.88336333  0.88336333  0.89069603  1.07794742  1.08024574
  1.08024574  1.08732286  1.08732286  1.09971247  1.09971247  1.29393003
  1.4618216   1.46593899  1.46593899  1.47940775  1.47940775  2.37846818
  2.39819745  2.39819745  2.63057554  2.63294213  2.63294213  2.64006275
  2.64006275  2.65200082  2.65200082  2.66886383  2.66886383  2.97495336
  2.97923149  2.97923149  2.9923534   2.9923534   3.0147101   3.0147101
  3.64245971  3.65089423  3.65089423  3.67654758  3.67654758  4.25191186
  5.1045616   5.10662029  5.10662029  5.11280677  5.11280677  5.1231526
  5.1231526   5.13771164  5.13771164  5.15656199  5.15656199  5.77809472
  5.81751595  5.81751595  6.79869452  6.80454035  6.80454035  6.82226517
  6.82226517  6.85242264  6.85242264  6.94950614  6.95323978  6.95323978
  6.96444397  6.96444397  6.98313013  6.98313013  7.00932299  7.00932299
  8.3607584   8.37201448  8.37201448  8.40649401  8.40649401 10.62723657
 10.62911912 10.62911912 10.63477152 10.63477152 10.64420807 10.64420807
 10.65745279 10.65745279 10.67453983 10.67453983 10.69551393 10.69551393
 13.45306213 13.48984643 13.48994519 13.48994519 13.49266816 13.49266816
 13.50113974 13.50113974 13.51528207 13.51528207 13.51576836 13.53512966
 13.53512966 13.56073188 13.56073188 14.43170509 14.4378679  14.4378679
 14.45647911 14.45647911 14.48802476 14.48802476 15.62185448 15.62595759
 15.62595759 15.6382757  15.6382757  15.6588354  15.6588354  15.68768199
 15.68768199 19.51710091 19.52772767 19.52772767 19.56004841 19.56004841
 36.90415689]
E1 = -8.345830298495427  Ecoul = 3.031518363268383
cycle= 4 E= -5.31431193522704  delta_E= -0.000201  |g|= 0.00207  |ddm|= 0.0593
    CPU time for cycle= 4     92.50 sec, wall time      0.73 sec
  HOMO = -0.131527986246675  LUMO = 0.0374478321148881
                  Roothaan           | alpha              | beta
  Highest 2-occ = -0.707120660606116 | -0.826352774273579 | -0.586613291613348
  Lowest 0-occ =  0.0374478321148881 | 0.0184383703315934 | 0.0573631520213103
  1-occ =         -0.131527986246678 | -0.434913811477889 |  0.172391841969671
  1-occ =         -0.131527986246675 | -0.434913811477891 |  0.172391841969671
  Roothaan mo_energy =
[-0.70712066 -0.13152799 -0.13152799  0.03744783  0.22437421  0.22437421
  0.2517988   0.25710501  0.48408433  0.48639679  0.48639679  0.49408245
  0.49408245  0.88235121  0.88235121  0.88988388  1.07741667  1.07970974
  1.07970974  1.08678066  1.08678066  1.0991512   1.0991512   1.29292507
  1.46079065  1.46489359  1.46489359  1.47832798  1.47832798  2.37728262
  2.39679322  2.39679322  2.62967617  2.63203688  2.63203688  2.63913983
  2.63913983  2.65104814  2.65104814  2.6678688   2.6678688   2.97377018
  2.97803909  2.97803909  2.99112383  2.99112383  3.01342232  3.01342232
  3.640994    3.6493978   3.6493978   3.67497308  3.67497308  4.25036765
  5.10333934  5.10539212  5.10539212  5.1115608   5.1115608   5.1218767
  5.1218767   5.13639327  5.13639327  5.15518803  5.15518803  5.77656766
  5.81584639  5.81584639  6.79704398  6.80287554  6.80287554  6.82055407
  6.82055407  6.85063213  6.85063213  6.94790686  6.95163021  6.95163021
  6.9628034   6.9628034   6.98143737  6.98143737  7.00755613  7.00755613
  8.35901965  8.3702468   8.3702468   8.40463735  8.40463735 10.62558034
 10.62745758 10.62745758 10.63309395 10.63309395 10.64250347 10.64250347
 10.65570975 10.65570975 10.67274632 10.67274632 10.69365712 10.69365712
 13.4514332  13.48799215 13.48823281 13.48823281 13.49080733 13.49080733
 13.49925903 13.49925903 13.51336759 13.51336759 13.51407176 13.5331666
 13.5331666  13.55870409 13.55870409 14.42987421 14.43602626 14.43602626
 14.45460358 14.45460358 14.48608847 14.48608847 15.61997424 15.62406955
 15.62406955 15.6363639  15.6363639  15.65688285 15.65688285 15.68566999
 15.68566999 19.51532436 19.52593665 19.52593665 19.55820795 19.55820795
 36.90259157]
E1 = -8.342398571374057  Ecoul = 3.028080814151877
cycle= 5 E= -5.31431775722218  delta_E= -5.82e-06  |g|= 0.000858  |ddm|= 0.0184
    CPU time for cycle= 5     89.10 sec, wall time      0.70 sec
  HOMO = -0.131818451315954  LUMO = 0.0373579216923541
                  Roothaan           | alpha              | beta
  Highest 2-occ = -0.707248779775404 | -0.827261214145354 | -0.587928497690581
  Lowest 0-occ =  0.0373579216923541 | 0.0176748858469865 | 0.0565981142815339
  1-occ =         -0.131818451315958 | -0.435524027623931 |  0.171303666443776
  1-occ =         -0.131818451315954 | -0.435524027623929 |  0.171303666443777
  Roothaan mo_energy =
[-0.70724878 -0.13181845 -0.13181845  0.03735792  0.2245642   0.2245642
  0.25174761  0.25706116  0.48401589  0.48632299  0.48632299  0.49399396
  0.49399396  0.8822554   0.8822554   0.88981569  1.07734349  1.07963583
  1.07963583  1.08670211  1.08670211  1.09906565  1.09906565  1.29285178
  1.46070019  1.46480365  1.46480365  1.47824303  1.47824303  2.37719061
  2.39668487  2.39668487  2.62957016  2.63192971  2.63192971  2.63902908
  2.63902908  2.65093122  2.65093122  2.66774283  2.66774283  2.97365638
  2.97792383  2.97792383  2.99100369  2.99100369  3.01329329  3.01329329
  3.64087726  3.649278    3.649278    3.67484121  3.67484121  4.25025425
  5.10321237  5.10526418  5.10526418  5.11142991  5.11142991  5.12174077
  5.12174077  5.13625004  5.13625004  5.15503497  5.15503497  5.77646213
  5.81572776  5.81572776  6.79691834  6.80274829  6.80274829  6.820422
  6.820422    6.85049095  6.85049095  6.94777456  6.95149664  6.95149664
  6.96266599  6.96266599  6.98129343  6.98129343  7.00740275  7.00740275
  8.35890632  8.3701314   8.3701314   8.404514    8.404514   10.62544043
 10.62731699 10.62731699 10.6329513  10.6329513  10.64235736 10.64235736
 10.65555871 10.65555871 10.67258879 10.67258879 10.69349143 10.69349143
 13.45134027 13.4878606  13.48813578 13.48813578 13.49067517 13.49067517
 13.49912499 13.49912499 13.51323041 13.51323041 13.51397904 13.53302494
 13.53302494 13.55855652 13.55855652 14.42976311 14.43591454 14.43591454
 14.45449003 14.45449003 14.48597141 14.48597141 15.61985549 15.62395029
 15.62395029 15.6362431  15.6362431  15.65675946 15.65675946 15.68554291
 15.68554291 19.51522937 19.52584154 19.52584154 19.55811234 19.55811234
 36.90251761]
E1 = -8.343440161148575  Ecoul = 3.029121073696734
cycle= 6 E= -5.31431908745184  delta_E= -1.33e-06  |g|= 3.67e-05  |ddm|= 0.00601
    CPU time for cycle= 6    102.48 sec, wall time      0.83 sec
  HOMO = -0.131813288173614  LUMO = 0.0373672861817722
                  Roothaan           | alpha              | beta
  Highest 2-occ = -0.707235835302257 | -0.826973133417812 | -0.587517108758036
  Lowest 0-occ =  0.0373672861817722 | 0.0178999640561286 |  0.056824758908621
  1-occ =         -0.131813288173619 | -0.435353886279132 |  0.171714951497599
  1-occ =         -0.131813288173614 | -0.435353886279132 |    0.1717149514976
  Roothaan mo_energy =
[-0.70723584 -0.13181329 -0.13181329  0.03736729  0.2245623   0.2245623
  0.25175825  0.25707072  0.4840239   0.48633027  0.48633027  0.49399977
  0.49399977  0.88227586  0.88227586  0.88982869  1.07735331  1.07964543
  1.07964543  1.0867108   1.0867108   1.09907278  1.09907278  1.2928655
  1.46071507  1.46481788  1.46481788  1.47825542  1.47825542  2.37720825
  2.39670008  2.39670008  2.62958419  2.63194355  2.63194355  2.63904232
  2.63904232  2.6509434   2.6509434   2.66775343  2.66775343  2.9736726
  2.97793981  2.97793981  2.9910187   2.9910187   3.01330661  3.01330661
  3.64089574  3.64929611  3.64929611  3.6748574   3.6748574   4.25027296
  5.10322888  5.10528055  5.10528055  5.11144588  5.11144588  5.12175603
  5.12175603  5.13626423  5.13626423  5.15504766  5.15504766  5.77648207
  5.81574588  5.81574588  6.79693814  6.80276783  6.80276783  6.82044079
  6.82044079  6.8505082   6.8505082   6.94779392  6.95151583  6.95151583
  6.96268462  6.96268462  6.98131108  6.98131108  7.00741891  7.00741891
  8.35892731  8.37015213  8.37015213  8.40453337  8.40453337 10.62546001
 10.62733647 10.62733647 10.63297051 10.63297051 10.6423761  10.6423761
 10.65557675 10.65557675 10.67260587 10.67260587 10.69350726 10.69350726
 13.45136151 13.48788206 13.48815599 13.48815599 13.49069654 13.49069654
 13.49914608 13.49914608 13.513251   13.513251   13.51399967 13.5330448
 13.5330448  13.55857538 13.55857538 14.42978491 14.4359362  14.4359362
 14.45451129 14.45451129 14.48599183 14.48599183 15.61987753 15.62397223
 15.62397223 15.63626474 15.63626474 15.65678056 15.65678056 15.68556321
 15.68556321 19.51525135 19.52586339 19.52586339 19.55813366 19.55813366
 36.90253861]
E1 = -8.343458559288838  Ecoul = 3.0291394701641132
cycle= 7 E= -5.31431908912472  delta_E= -1.67e-09  |g|= 3.59e-06  |ddm|= 0.0002
    CPU time for cycle= 7     93.12 sec, wall time      0.76 sec
  HOMO = -0.131813456649608  LUMO = 0.0373669106524004
                  Roothaan           | alpha              | beta
  Highest 2-occ = -0.707235497339431 | -0.826966773133571 | -0.587506777173745
  Lowest 0-occ =  0.0373669106524004 | 0.0179037330324281 | 0.0568285681548689
  1-occ =          -0.13181345664961 | -0.435353034332962 |  0.171724169573395
  1-occ =         -0.131813456649608 | -0.435353034332964 |  0.171724169573397
  Roothaan mo_energy =
[-0.7072355  -0.13181346 -0.13181346  0.03736691  0.22456322  0.22456322
  0.25175765  0.25707051  0.48402341  0.48632983  0.48632983  0.49399934
  0.49399934  0.88227369  0.88227369  0.88982837  1.07735276  1.07964487
  1.07964487  1.08671022  1.08671022  1.09907216  1.09907216  1.29286519
  1.46071467  1.4648175   1.4648175   1.47825492  1.47825492  2.37720788
  2.3967001   2.3967001   2.62958367  2.63194301  2.63194301  2.63904176
  2.63904176  2.65094281  2.65094281  2.66775282  2.66775282  2.97367224
  2.97793942  2.97793942  2.99101831  2.99101831  3.01330618  3.01330618
  3.64089552  3.64929587  3.64929587  3.67485715  3.67485715  4.25027269
  5.10322852  5.10528019  5.10528019  5.11144551  5.11144551  5.12175565
  5.12175565  5.13626386  5.13626386  5.15504731  5.15504731  5.77648182
  5.81574574  5.81574574  6.79693802  6.80276772  6.80276772  6.8204407
  6.8204407   6.85050818  6.85050818  6.9477938   6.95151571  6.95151571
  6.96268451  6.96268451  6.981311    6.981311    7.0074189   7.0074189
  8.35892717  8.37015199  8.37015199  8.40453332  8.40453332 10.62545994
 10.62733641 10.62733641 10.63297045 10.63297045 10.64237605 10.64237605
 10.65557673 10.65557673 10.6726059  10.6726059  10.69350737 10.69350737
 13.45136115 13.48788205 13.48815571 13.48815571 13.49069653 13.49069653
 13.49914608 13.49914608 13.51325103 13.51325103 13.5139994  13.53304488
 13.53304488 13.55857555 13.55857555 14.42978478 14.43593608 14.43593608
 14.45451119 14.45451119 14.4859918  14.4859918  15.61987746 15.62397217
 15.62397217 15.63626469 15.63626469 15.65678055 15.65678055 15.68556328
 15.68556328 19.51525107 19.52586311 19.52586311 19.55813344 19.55813344
 36.90253802]
E1 = -8.343462407580676  Ecoul = 3.029143318433358
cycle= 8 E= -5.31431908914732  delta_E= -2.26e-11  |g|= 2.92e-07  |ddm|= 2.78e-05
    CPU time for cycle= 8     94.38 sec, wall time      0.75 sec
  HOMO = -0.131813377210423  LUMO = 0.037366994055378
                  Roothaan           | alpha              | beta
  Highest 2-occ = -0.707235432120688 | -0.826965694871945 | -0.587505169369431
  Lowest 0-occ =   0.037366994055378 | 0.0179045744841766 | 0.0568294136265776
  1-occ =         -0.131813377210436 | -0.435352453236305 |  0.171725703829866
  1-occ =         -0.131813377210423 | -0.435352453236305 |  0.171725703829867
  Roothaan mo_energy =
[-0.70723543 -0.13181338 -0.13181338  0.03736699  0.22456322  0.22456322
  0.2517577   0.25707055  0.48402347  0.48632989  0.48632989  0.49399939
  0.49399939  0.88227382  0.88227382  0.88982845  1.07735283  1.07964493
  1.07964493  1.08671029  1.08671029  1.09907222  1.09907222  1.29286529
  1.46071476  1.46481759  1.46481759  1.47825502  1.47825502  2.37720798
  2.39670018  2.39670018  2.62958376  2.63194311  2.63194311  2.63904186
  2.63904186  2.65094291  2.65094291  2.66775291  2.66775291  2.97367235
  2.97793953  2.97793953  2.99101842  2.99101842  3.0133063   3.0133063
  3.64089564  3.64929599  3.64929599  3.67485728  3.67485728  4.25027282
  5.10322864  5.10528031  5.10528031  5.11144563  5.11144563  5.12175577
  5.12175577  5.13626397  5.13626397  5.15504743  5.15504743  5.77648194
  5.81574587  5.81574587  6.79693815  6.80276785  6.80276785  6.82044083
  6.82044083  6.85050831  6.85050831  6.94779394  6.95151584  6.95151584
  6.96268465  6.96268465  6.98131113  6.98131113  7.00741903  7.00741903
  8.3589273   8.37015212  8.37015212  8.40453345  8.40453345 10.62546007
 10.62733654 10.62733654 10.63297059 10.63297059 10.64237619 10.64237619
 10.65557687 10.65557687 10.67260604 10.67260604 10.69350751 10.69350751
 13.45136128 13.48788219 13.48815585 13.48815585 13.49069667 13.49069667
 13.49914622 13.49914622 13.51325117 13.51325117 13.51399953 13.53304502
 13.53304502 13.5585757  13.5585757  14.42978492 14.43593621 14.43593621
 14.45451132 14.45451132 14.48599193 14.48599193 15.6198776  15.6239723
 15.6239723  15.63626483 15.63626483 15.65678069 15.65678069 15.68556341
 15.68556341 19.51525121 19.52586325 19.52586325 19.55813357 19.55813357
 36.90253816]
E1 = -8.343462490383013  Ecoul = 3.0291434012356593
Extra cycle  E= -5.31431908914735  delta_E= -3.55e-14  |g|= 6.02e-08  |ddm|= 1.4e-06
    CPU time for scf_cycle   1083.61 sec, wall time      9.38 sec
    CPU time for SCF   1083.62 sec, wall time      9.38 sec
converged SCF energy = -5.31431908914735
