#INFO: **** input file is /home/nkousuke/lustre/toBeSync/turboRVB/05turbo-genius-development/turbogenius_paper/04data/sanity_checks/02pyscf_prep_LDA_via_trexio/00open_boundary/results/CH4/pyscf-LDA-workflow/run.py ****

from pyscf_wrapper import Pyscf_wrapper

# input variables
pyscf_chkfile="pyscf.chk"
structure_file="CH4.xyz"

# input variables
omp_num_threads=128
charge=0
spin=0
basis="ccecp-ccpvqz"
ecp="ccecp"
scf_method="DFT"
dft_xc="LDA_X,LDA_C_PZ"
solver_newton=False
MP2_flag=False
CCSD_flag=False
pyscf_output="out.pyscf"
twist_average=False
exp_to_discard=0.1
kpt=[0.0, 0.0, 0.0]
kpt_grid=[1, 1, 1]
smearing_method="fermi"
smearing_sigma=0.0

pyscf_calc=Pyscf_wrapper(
                        structure_file=structure_file,
                        chkfile=pyscf_chkfile,
                        )

pyscf_calc.run_pyscf(
                  omp_num_threads=omp_num_threads,
                  charge=charge,
                  spin=spin,
                  basis=basis,
                  ecp=ecp,
                  scf_method=scf_method,
                  dft_xc=dft_xc,
                  solver_newton=solver_newton,
                  MP2_flag=MP2_flag,
                  CCSD_flag=CCSD_flag,
                  pyscf_output=pyscf_output,
                  twist_average=twist_average,
                  exp_to_discard=exp_to_discard,
                  kpt=kpt,
                  kpt_grid=kpt_grid,
                  smearing_method=smearing_method,
                  smearing_sigma=smearing_sigma
                  )
                #INFO: ******************** input file end ********************


System: uname_result(system='Linux', node='spcc-142', release='5.4.0-66-generic', version='#74-Ubuntu SMP Wed Jan 27 22:54:38 UTC 2021', machine='x86_64', processor='x86_64')  Threads 128
Python 3.7.3 (default, Mar 27 2019, 22:11:17) 
[GCC 7.3.0]
numpy 1.21.6  scipy 1.7.3
Date: Wed Dec 28 11:29:50 2022
PySCF version 2.1.1
PySCF path  /home/nkousuke/application/anaconda3/lib/python3.7/site-packages/pyscf

[CONFIG] conf_file /home/nkousuke/.pyscf_conf.py
[INPUT] verbose = 5
[INPUT] max_memory = 507522.57421875 
[INPUT] num. atoms = 5
[INPUT] num. electrons = 8
[INPUT] charge = 0
[INPUT] spin (= nelec alpha-beta = 2S) = 0
[INPUT] symmetry False subgroup None
[INPUT] Mole.unit = A
[INPUT] Symbol           X                Y                Z      unit          X                Y                Z       unit  Magmom
[INPUT]  1 C      0.000000000000   0.000000000000   0.000000000000 AA    0.000000000000   0.000000000000   0.000000000000 Bohr   0.0
[INPUT]  2 H      0.627060000000   0.627060000000   0.627060000000 AA    1.184971663670   1.184971663670   1.184971663670 Bohr   0.0
[INPUT]  3 H     -0.627060000000  -0.627060000000   0.627060000000 AA   -1.184971663670  -1.184971663670   1.184971663670 Bohr   0.0
[INPUT]  4 H      0.627060000000  -0.627060000000  -0.627060000000 AA    1.184971663670  -1.184971663670  -1.184971663670 Bohr   0.0
[INPUT]  5 H     -0.627060000000   0.627060000000  -0.627060000000 AA   -1.184971663670   1.184971663670  -1.184971663670 Bohr   0.0
[INPUT] ---------------- BASIS SET ---------------- 
[INPUT] l, kappa, [nprim/nctr], expnt,             c_1 c_2 ...
[INPUT] C
[INPUT] 0    0    [9    /1   ]  13.073594         0.0051583
                                6.541187          0.0603424
                                4.573411          -0.1978471
                                1.637494          -0.081034
                                0.819297          0.2321726
                                0.409924          0.2914643
                                0.2313            0.4336405
                                0.102619          0.213194
                                0.051344          0.0049848
[INPUT] 0    0    [1    /1   ]  0.846879             1
[INPUT] 0    0    [1    /1   ]  0.269659             1
[INPUT] 0    0    [1    /1   ]  0.109576             1
[INPUT] 1    0    [9    /1   ]  9.934169          0.0209076
                                3.886955          0.0572698
                                1.871016          0.1122682
                                0.935757          0.2130082
                                0.468003          0.2835815
                                0.239473          0.3011207
                                0.117063          0.2016934
                                0.058547          0.0453575
                                0.029281          0.0029775
[INPUT] 1    0    [1    /1   ]  0.804681             1
[INPUT] 1    0    [1    /1   ]  0.313254             1
[INPUT] 1    0    [1    /1   ]  0.105389             1
[INPUT] 2    0    [1    /1   ]  2.01376              1
[INPUT] 2    0    [1    /1   ]  0.684884             1
[INPUT] 2    0    [1    /1   ]  0.240171             1
[INPUT] 3    0    [1    /1   ]  0.457302             1
[INPUT] 3    0    [1    /1   ]  1.32493              1
[INPUT] 4    0    [1    /1   ]  1.03418              1
[INPUT] H
[INPUT] 0    0    [8    /1   ]  23.843185         0.0041149
                                10.212443         0.0104644
                                4.374164          0.0280111
                                1.873529          0.0758862
                                0.802465          0.1821062
                                0.343709          0.3485214
                                0.147217          0.3782313
                                0.063055          0.1164241
[INPUT] 0    0    [1    /1   ]  0.081856             1
[INPUT] 0    0    [1    /1   ]  0.233254             1
[INPUT] 0    0    [1    /1   ]  0.664673             1
[INPUT] 1    0    [1    /1   ]  0.284469             1
[INPUT] 1    0    [1    /1   ]  0.847159             1
[INPUT] 1    0    [1    /1   ]  2.522868             1
[INPUT] 2    0    [1    /1   ]  0.665279             1
[INPUT] 2    0    [1    /1   ]  2.048739             1
[INPUT] 3    0    [1    /1   ]  1.42146              1

nuclear repulsion = 9.58581964349757
number of shells = 54
number of NR pGTOs = 234
number of NR cGTOs = 174
basis = ccecp-ccpvqz
ecp = ccecp
CPU time:         1.52


******** <class 'pyscf.df.df_jk.density_fit.<locals>.DensityFitting'> ********
method = DensityFitting-RKS
initial guess = minao
damping factor = 0
level_shift factor = 0
DIIS = <class 'pyscf.scf.diis.CDIIS'>
diis_start_cycle = 1
diis_space = 8
SCF conv_tol = 1e-09
SCF conv_tol_grad = None
SCF max_cycles = 200
direct_scf = True
direct_scf_tol = 1e-13
chkfile to save SCF result = pyscf.chk
max_memory 507522 MB (current use 102 MB)
XC library pyscf.dft.libxc version 5.2.0
    S. Lehtola, C. Steigemann, M. J. Oliveira, and M. A. Marques, SoftwareX 7, 1 (2018)
XC functionals = LDA_X,LDA_C_PZ
    P. A. M. Dirac, Math. Proc. Cambridge Philos. Soc. 26, 376 (1930)
    F. Bloch, Z. Phys. 57, 545 (1929)
    J. P. Perdew and A. Zunger, Phys. Rev. B 23, 5048 (1981)
radial grids: 
    Treutler-Ahlrichs [JCP 102, 346 (1995); DOI:10.1063/1.469408] (M4) radial grids
    
becke partition: Becke, JCP 88, 2547 (1988); DOI:10.1063/1.454033
pruning grids: <function nwchem_prune at 0x1528c4817158>
grids dens level: 3
symmetrized grids: False
atomic radii adjust function: <function treutler_atomic_radii_adjust at 0x1528c4817048>
small_rho_cutoff = 1e-07
Set gradient conv threshold to 3.16228e-05
atom C rad-grids = 75, ang-grids = [ 50  50  50  50  50  50  50  50  50  50  50  50  50  50  50  50  50  50
  50  50  50  50  50  86  86  86  86  86  86  86  86  86  86 266 266 266
 266 266 266 266 302 302 302 302 302 302 302 302 302 302 302 302 302 302
 302 302 302 302 302 302 266 266 266 266 266 266 266 266 266 266 266 266
 266 266 266]
atom H rad-grids = 50, ang-grids = [ 50  50  50  50  50  50  50  50  50  50  50  50  50  50  86  86  86  86
 266 266 266 266 302 302 302 302 302 302 302 302 302 302 302 302 302 266
 266 266 266 266 266 266 266 266 266 266 266 266 266 266]
tot_boxes 1331, boxes in each direction [9 9 9]
Padding 2 grids
tot grids = 54000
Drop grids 5288
prune_by_density_: 0 padding grids
    CPU time for setting up grids     20.10 sec, wall time      0.23 sec
nelec by numeric integration = 7.999886689600237
    CPU time for vxc     17.90 sec, wall time      0.23 sec
Even tempered Gaussians are generated as DF auxbasis for  C H
  ETB auxbasis for C  [[0, [13.144064, 1]], [0, [6.572032, 1]], [0, [3.286016, 1]], [0, [1.643008, 1]], [0, [0.821504, 1]], [0, [0.410752, 1]], [0, [0.205376, 1]], [0, [0.102688, 1]], [1, [19.852159834527225, 1]], [1, [9.926079917263612, 1]], [1, [4.963039958631806, 1]], [1, [2.481519979315903, 1]], [1, [1.2407599896579515, 1]], [1, [0.6203799948289758, 1]], [1, [0.3101899974144879, 1]], [1, [0.15509499870724394, 1]], [1, [0.07754749935362197, 1]], [2, [14.991872, 1]], [2, [7.495936, 1]], [2, [3.747968, 1]], [2, [1.873984, 1]], [2, [0.936992, 1]], [2, [0.468496, 1]], [2, [0.234248, 1]], [2, [0.117124, 1]], [2, [0.058562, 1]], [3, [5.36701994787573, 1]], [3, [2.683509973937865, 1]], [3, [1.3417549869689325, 1]], [3, [0.6708774934844662, 1]], [3, [0.3354387467422331, 1]], [3, [0.16771937337111656, 1]], [4, [3.842736, 1]], [4, [1.921368, 1]], [4, [0.960684, 1]], [4, [0.480342, 1]]]
  ETB auxbasis for H  [[0, [32.28416, 1]], [0, [16.14208, 1]], [0, [8.07104, 1]], [0, [4.03552, 1]], [0, [2.01776, 1]], [0, [1.00888, 1]], [0, [0.50444, 1]], [0, [0.25222, 1]], [0, [0.12611, 1]], [1, [8.571507550502421, 1]], [1, [4.2857537752512105, 1]], [1, [2.1428768876256052, 1]], [1, [1.0714384438128026, 1]], [1, [0.5357192219064013, 1]], [1, [0.26785961095320066, 1]], [2, [4.551504, 1]], [2, [2.275752, 1]], [2, [1.137876, 1]], [2, [0.568938, 1]]]
num shells = 112, num cGTOs = 346
    CPU time for df-vj     10.48 sec, wall time      0.14 sec
E1 = -28.489178646759147  Ecoul = 14.264316964637558  Exc = -2.9163675946062746
init E= -7.5554096332303
cond(S) = 77071.77188646012
    CPU time for initialize scf     80.09 sec, wall time      0.99 sec
  HOMO = -0.4612497926996  LUMO = -0.0178404170073857
  mo_energy =
[-7.58350201e-01 -4.61249793e-01 -4.61249793e-01 -4.61249793e-01
 -1.78404170e-02  4.45312860e-02  4.45312860e-02  4.45312860e-02
  1.18163785e-01  1.18163785e-01  1.18163785e-01  2.78801787e-01
  2.84917924e-01  2.84917924e-01  2.88762538e-01  2.88762538e-01
  2.88762538e-01  3.91270384e-01  5.88223908e-01  5.88223908e-01
  5.88223908e-01  6.05417642e-01  6.05417642e-01  6.05417642e-01
  7.04098142e-01  7.04098142e-01  7.04098142e-01  9.12234107e-01
  9.12234107e-01  9.12234107e-01  9.23430902e-01  9.28950138e-01
  9.28950138e-01  1.04201540e+00  1.04201540e+00  1.04201540e+00
  1.10255585e+00  1.60306148e+00  1.60306148e+00  1.60306148e+00
  1.65118020e+00  1.65118020e+00  1.65343051e+00  1.65343051e+00
  1.65343051e+00  1.75899777e+00  1.75899777e+00  1.75899777e+00
  1.80817991e+00  2.01560305e+00  2.01560305e+00  2.01560305e+00
  2.15745686e+00  2.15745686e+00  2.20447535e+00  2.20447535e+00
  2.20447535e+00  2.31930067e+00  2.31930067e+00  2.31975567e+00
  2.31975567e+00  2.31975567e+00  2.40789118e+00  2.76211356e+00
  2.76211356e+00  2.76211356e+00  2.80798062e+00  2.80798062e+00
  2.80798062e+00  2.92630155e+00  3.03073182e+00  3.03073182e+00
  3.03073182e+00  3.04681991e+00  3.04681991e+00  3.04681991e+00
  3.11076911e+00  3.11076911e+00  3.11076911e+00  3.53414225e+00
  3.68468231e+00  3.68468231e+00  3.68468231e+00  3.74151617e+00
  3.74151617e+00  4.99486705e+00  4.99486705e+00  4.99486705e+00
  5.09121776e+00  5.09121776e+00  5.09121776e+00  5.11768360e+00
  5.11768360e+00  5.38838171e+00  5.61858224e+00  5.61858224e+00
  5.61858224e+00  5.81304559e+00  5.81304559e+00  5.81304559e+00
  5.84825605e+00  5.89540379e+00  5.89540379e+00  5.89540379e+00
  5.98823144e+00  5.98823144e+00  5.98823144e+00  5.98851655e+00
  6.14306469e+00  6.14306469e+00  6.14306469e+00  6.49757770e+00
  6.49757770e+00  6.49757770e+00  6.54943175e+00  6.78164078e+00
  6.78164078e+00  7.18761069e+00  7.18761069e+00  7.18761069e+00
  7.20359169e+00  7.20359169e+00  7.20359169e+00  7.23574710e+00
  7.23574710e+00  7.26778051e+00  7.52931806e+00  7.52931806e+00
  7.52931806e+00  7.59557754e+00  7.59557754e+00  7.60882885e+00
  7.60882885e+00  7.60882885e+00  7.72320187e+00  7.72320187e+00
  7.72320187e+00  7.97092235e+00  8.11826107e+00  8.11826107e+00
  8.18027464e+00  8.18027464e+00  8.18027464e+00  8.25753536e+00
  8.25753536e+00  8.25753536e+00  8.29047427e+00  8.29047427e+00
  8.29047427e+00  8.96213368e+00  8.96213368e+00  8.96213368e+00
  8.99956110e+00  8.99956110e+00  8.99956110e+00  9.29829136e+00
  9.29829136e+00  9.69860164e+00  9.91565391e+00  9.91565391e+00
  9.93341403e+00  9.93341403e+00  9.93341403e+00  1.00385946e+01
  1.00385946e+01  1.00385946e+01  1.03064773e+01  1.03064773e+01
  1.03064773e+01  1.03217055e+01  1.22478196e+01  1.22478196e+01
  1.22478196e+01  2.03981709e+01]
nelec by numeric integration = 8.000028172792206
    CPU time for vxc     18.09 sec, wall time      0.22 sec
    CPU time for df-vj      3.14 sec, wall time      0.05 sec
E1 = -30.52688629421268  Ecoul = 16.31590570698278  Exc = -3.2819283295503214
cycle= 1 E= -7.90708927328266  delta_E= -0.352  |g|= 0.601  |ddm|= 4.52
    CPU time for cycle= 1     23.76 sec, wall time      0.31 sec
  HOMO = -0.237340736536063  LUMO = 0.0467447588799687
  mo_energy =
[-0.49457368 -0.23734074 -0.23734074 -0.23734074  0.04674476  0.12396106
  0.12396106  0.12396106  0.1865105   0.1865105   0.1865105   0.38011591
  0.38382509  0.38382509  0.42016623  0.42016623  0.42016623  0.45722421
  0.65142765  0.65142765  0.65142765  0.70671956  0.70671956  0.70671956
  0.79138978  0.79138978  0.79138978  0.98751547  0.98751547  0.98751547
  1.02081144  1.02081144  1.03642121  1.17789991  1.17789991  1.17789991
  1.21022943  1.73758081  1.73758081  1.73758081  1.84116672  1.84116672
  1.84635898  1.84635898  1.84635898  1.9258744   1.9258744   1.9258744
  1.97888093  2.11381314  2.11381314  2.11381314  2.27657891  2.27657891
  2.33801501  2.33801501  2.33801501  2.40480531  2.40480531  2.40480531
  2.41107413  2.41107413  2.54547699  2.86197179  2.86197179  2.86197179
  2.91886097  2.91886097  2.91886097  3.07563889  3.17909026  3.17909026
  3.17909026  3.20028396  3.20028396  3.20028396  3.25508817  3.25508817
  3.25508817  3.72067878  3.89956999  3.89956999  3.89956999  3.93089177
  3.93089177  5.26858936  5.26858936  5.26858936  5.36971257  5.36971257
  5.39378117  5.39378117  5.39378117  5.67381099  5.85116388  5.85116388
  5.85116388  5.97480857  5.98995016  5.98995016  5.98995016  6.07879475
  6.07879475  6.07879475  6.163283    6.18719134  6.18719134  6.18719134
  6.39203395  6.39203395  6.39203395  6.74870365  6.74870365  6.74870365
  6.75841003  7.05157696  7.05157696  7.35942468  7.35942468  7.35942468
  7.37334755  7.37334755  7.37334755  7.42276934  7.42276934  7.42793454
  7.67049437  7.67049437  7.67049437  7.72783242  7.72783242  7.72783242
  7.76673133  7.76673133  7.8527993   7.8527993   7.8527993   8.18180818
  8.27663915  8.27663915  8.39183897  8.39183897  8.39183897  8.39872086
  8.39872086  8.39872086  8.47790859  8.47790859  8.47790859  9.12151979
  9.12151979  9.12151979  9.19253072  9.19253072  9.19253072  9.50632203
  9.50632203  9.8922817  10.09240736 10.09240736 10.16568741 10.16568741
 10.16568741 10.278811   10.278811   10.278811   10.56428437 10.56428437
 10.56428437 10.56679356 12.52504752 12.52504752 12.52504752 20.9157018 ]
nelec by numeric integration = 8.000039580395184
    CPU time for vxc     19.31 sec, wall time      0.22 sec
    CPU time for df-vj      3.16 sec, wall time      0.05 sec
E1 = -28.21508781978025  Ecoul = 13.66908487638557  Exc = -2.8433452027277877
cycle= 2 E= -7.8035285026249  delta_E= 0.104  |g|= 0.815  |ddm|= 2.29
    CPU time for cycle= 2     24.99 sec, wall time      0.31 sec
  HOMO = -0.351109395538199  LUMO = 0.0129301240330152
  mo_energy =
[-6.34658964e-01 -3.51109396e-01 -3.51109396e-01 -3.51109396e-01
  1.29301240e-02  8.37797801e-02  8.37797801e-02  8.37797801e-02
  1.51560570e-01  1.51560570e-01  1.51560570e-01  3.23971738e-01
  3.32330362e-01  3.32330362e-01  3.44506340e-01  3.44506340e-01
  3.44506340e-01  4.23567042e-01  6.18952281e-01  6.18952281e-01
  6.18952281e-01  6.52704120e-01  6.52704120e-01  6.52704120e-01
  7.43554206e-01  7.43554206e-01  7.43554206e-01  9.46912963e-01
  9.46912963e-01  9.46912963e-01  9.71810176e-01  9.71810176e-01
  9.73412731e-01  1.10350342e+00  1.10350342e+00  1.10350342e+00
  1.15556862e+00  1.66533395e+00  1.66533395e+00  1.66533395e+00
  1.73777055e+00  1.73777055e+00  1.73945363e+00  1.73945363e+00
  1.73945363e+00  1.83350222e+00  1.83350222e+00  1.83350222e+00
  1.88357721e+00  2.06335694e+00  2.06335694e+00  2.06335694e+00
  2.21262578e+00  2.21262578e+00  2.26715816e+00  2.26715816e+00
  2.26715816e+00  2.36221602e+00  2.36221602e+00  2.36221602e+00
  2.36389801e+00  2.36389801e+00  2.47200574e+00  2.80999141e+00
  2.80999141e+00  2.80999141e+00  2.86050880e+00  2.86050880e+00
  2.86050880e+00  2.99711141e+00  3.10878360e+00  3.10878360e+00
  3.10878360e+00  3.10893480e+00  3.10893480e+00  3.10893480e+00
  3.17760443e+00  3.17760443e+00  3.17760443e+00  3.61771139e+00
  3.78024775e+00  3.78024775e+00  3.78024775e+00  3.82722858e+00
  3.82722858e+00  5.11683512e+00  5.11683512e+00  5.11683512e+00
  5.22460472e+00  5.22460472e+00  5.22460472e+00  5.23105061e+00
  5.23105061e+00  5.51618232e+00  5.72757222e+00  5.72757222e+00
  5.72757222e+00  5.89436358e+00  5.89436358e+00  5.89436358e+00
  5.90915243e+00  5.99027005e+00  5.99027005e+00  5.99027005e+00
  6.07050552e+00  6.07050552e+00  6.07050552e+00  6.07291401e+00
  6.25492223e+00  6.25492223e+00  6.25492223e+00  6.61005681e+00
  6.61005681e+00  6.61005681e+00  6.64513773e+00  6.90909939e+00
  6.90909939e+00  7.26839776e+00  7.26839776e+00  7.26839776e+00
  7.28614531e+00  7.28614531e+00  7.28614531e+00  7.32438976e+00
  7.32438976e+00  7.34522594e+00  7.59906433e+00  7.59906433e+00
  7.59906433e+00  7.66887094e+00  7.66887094e+00  7.66989130e+00
  7.66989130e+00  7.66989130e+00  7.78698452e+00  7.78698452e+00
  7.78698452e+00  8.06799349e+00  8.19592608e+00  8.19592608e+00
  8.30117566e+00  8.30117566e+00  8.30117566e+00  8.32751451e+00
  8.32751451e+00  8.32751451e+00  8.35690351e+00  8.35690351e+00
  8.35690351e+00  9.04111185e+00  9.04111185e+00  9.04111185e+00
  9.08999275e+00  9.08999275e+00  9.08999275e+00  9.39536199e+00
  9.39536199e+00  9.79125234e+00  1.00009347e+01  1.00009347e+01
  1.00411154e+01  1.00411154e+01  1.00411154e+01  1.01491841e+01
  1.01491841e+01  1.01491841e+01  1.04238913e+01  1.04238913e+01
  1.04238913e+01  1.04366661e+01  1.23740107e+01  1.23740107e+01
  1.23740107e+01  2.06157300e+01]
nelec by numeric integration = 8.00003367156881
    CPU time for vxc     22.00 sec, wall time      0.24 sec
    CPU time for df-vj      3.24 sec, wall time      0.05 sec
E1 = -29.673818439741684  Ecoul = 15.179230226414793  Exc = -3.0907625770317186
cycle= 3 E= -7.99953114686104  delta_E= -0.196  |g|= 0.0156  |ddm|= 1.32
    CPU time for cycle= 3     27.95 sec, wall time      0.33 sec
  HOMO = -0.347747533779858  LUMO = 0.0134535965228522
  mo_energy =
[-6.31057777e-01 -3.47747534e-01 -3.47747534e-01 -3.47747534e-01
  1.34535965e-02  8.43328121e-02  8.43328121e-02  8.43328121e-02
  1.53222370e-01  1.53222370e-01  1.53222370e-01  3.24986550e-01
  3.34967194e-01  3.34967194e-01  3.45711447e-01  3.45711447e-01
  3.45711447e-01  4.25087684e-01  6.20447353e-01  6.20447353e-01
  6.20447353e-01  6.54659779e-01  6.54659779e-01  6.54659779e-01
  7.45035464e-01  7.45035464e-01  7.45035464e-01  9.47792525e-01
  9.47792525e-01  9.47792525e-01  9.73532338e-01  9.73532338e-01
  9.74568787e-01  1.10584193e+00  1.10584193e+00  1.10584193e+00
  1.15850615e+00  1.66901827e+00  1.66901827e+00  1.66901827e+00
  1.74126070e+00  1.74126070e+00  1.74191781e+00  1.74191781e+00
  1.74191781e+00  1.83656548e+00  1.83656548e+00  1.83656548e+00
  1.88688075e+00  2.06646419e+00  2.06646419e+00  2.06646419e+00
  2.21561131e+00  2.21561131e+00  2.26958801e+00  2.26958801e+00
  2.26958801e+00  2.36477275e+00  2.36477275e+00  2.36477275e+00
  2.36602550e+00  2.36602550e+00  2.47396484e+00  2.81239833e+00
  2.81239833e+00  2.81239833e+00  2.86322888e+00  2.86322888e+00
  2.86322888e+00  3.00052994e+00  3.11085539e+00  3.11085539e+00
  3.11085539e+00  3.11269358e+00  3.11269358e+00  3.11269358e+00
  3.18067449e+00  3.18067449e+00  3.18067449e+00  3.61974655e+00
  3.78275688e+00  3.78275688e+00  3.78275688e+00  3.82977118e+00
  3.82977118e+00  5.12025145e+00  5.12025145e+00  5.12025145e+00
  5.22679102e+00  5.22679102e+00  5.22679102e+00  5.23518939e+00
  5.23518939e+00  5.51931175e+00  5.73063850e+00  5.73063850e+00
  5.73063850e+00  5.89816125e+00  5.89816125e+00  5.89816125e+00
  5.91352369e+00  5.99458921e+00  5.99458921e+00  5.99458921e+00
  6.07441816e+00  6.07441816e+00  6.07441816e+00  6.07710177e+00
  6.25769796e+00  6.25769796e+00  6.25769796e+00  6.61305634e+00
  6.61305634e+00  6.61305634e+00  6.64900619e+00  6.91090688e+00
  6.91090688e+00  7.27233228e+00  7.27233228e+00  7.27233228e+00
  7.28981653e+00  7.28981653e+00  7.28981653e+00  7.32759877e+00
  7.32759877e+00  7.34843153e+00  7.60235435e+00  7.60235435e+00
  7.60235435e+00  7.67105308e+00  7.67105308e+00  7.67354071e+00
  7.67354071e+00  7.67354071e+00  7.79049388e+00  7.79049388e+00
  7.79049388e+00  8.07106780e+00  8.20063659e+00  8.20063659e+00
  8.30379039e+00  8.30379039e+00  8.30379039e+00  8.33161598e+00
  8.33161598e+00  8.33161598e+00  8.36049701e+00  8.36049701e+00
  8.36049701e+00  9.04565411e+00  9.04565411e+00  9.04565411e+00
  9.09395184e+00  9.09395184e+00  9.09395184e+00  9.39978493e+00
  9.39978493e+00  9.79450872e+00  1.00051456e+01  1.00051456e+01
  1.00444221e+01  1.00444221e+01  1.00444221e+01  1.01526886e+01
  1.01526886e+01  1.01526886e+01  1.04271572e+01  1.04271572e+01
  1.04271572e+01  1.04404142e+01  1.23761817e+01  1.23761817e+01
  1.23761817e+01  2.06107930e+01]
nelec by numeric integration = 8.000033764936825
    CPU time for vxc     21.79 sec, wall time      0.26 sec
    CPU time for df-vj      3.30 sec, wall time      0.05 sec
E1 = -29.673936714465754  Ecoul = 15.178254371629334  Exc = -3.0897154964566265
cycle= 4 E= -7.99957819579548  delta_E= -4.7e-05  |g|= 0.00104  |ddm|= 0.0374
    CPU time for cycle= 4     28.34 sec, wall time      0.36 sec
  HOMO = -0.348386203547981  LUMO = 0.0129784346163024
  mo_energy =
[-6.31683714e-01 -3.48386204e-01 -3.48386204e-01 -3.48386204e-01
  1.29784346e-02  8.38369481e-02  8.38369481e-02  8.38369481e-02
  1.52753816e-01  1.52753816e-01  1.52753816e-01  3.24523908e-01
  3.34485668e-01  3.34485668e-01  3.45208483e-01  3.45208483e-01
  3.45208483e-01  4.24571265e-01  6.19914599e-01  6.19914599e-01
  6.19914599e-01  6.54190773e-01  6.54190773e-01  6.54190773e-01
  7.44554042e-01  7.44554042e-01  7.44554042e-01  9.47251393e-01
  9.47251393e-01  9.47251393e-01  9.73004455e-01  9.73004455e-01
  9.74044838e-01  1.10524127e+00  1.10524127e+00  1.10524127e+00
  1.15790670e+00  1.66853937e+00  1.66853937e+00  1.66853937e+00
  1.74072375e+00  1.74072375e+00  1.74138429e+00  1.74138429e+00
  1.74138429e+00  1.83607941e+00  1.83607941e+00  1.83607941e+00
  1.88647472e+00  2.06594286e+00  2.06594286e+00  2.06594286e+00
  2.21511284e+00  2.21511284e+00  2.26900937e+00  2.26900937e+00
  2.26900937e+00  2.36421575e+00  2.36421575e+00  2.36421575e+00
  2.36543017e+00  2.36543017e+00  2.47339522e+00  2.81183170e+00
  2.81183170e+00  2.81183170e+00  2.86270865e+00  2.86270865e+00
  2.86270865e+00  2.99992088e+00  3.11024131e+00  3.11024131e+00
  3.11024131e+00  3.11217853e+00  3.11217853e+00  3.11217853e+00
  3.18005369e+00  3.18005369e+00  3.18005369e+00  3.61910386e+00
  3.78215426e+00  3.78215426e+00  3.78215426e+00  3.82916174e+00
  3.82916174e+00  5.11965608e+00  5.11965608e+00  5.11965608e+00
  5.22618219e+00  5.22618219e+00  5.22618219e+00  5.23460023e+00
  5.23460023e+00  5.51870224e+00  5.72996063e+00  5.72996063e+00
  5.72996063e+00  5.89759753e+00  5.89759753e+00  5.89759753e+00
  5.91299403e+00  5.99399306e+00  5.99399306e+00  5.99399306e+00
  6.07382006e+00  6.07382006e+00  6.07382006e+00  6.07647513e+00
  6.25705956e+00  6.25705956e+00  6.25705956e+00  6.61237557e+00
  6.61237557e+00  6.61237557e+00  6.64839817e+00  6.91021828e+00
  6.91021828e+00  7.27173156e+00  7.27173156e+00  7.27173156e+00
  7.28913083e+00  7.28913083e+00  7.28913083e+00  7.32692470e+00
  7.32692470e+00  7.34773254e+00  7.60166020e+00  7.60166020e+00
  7.60166020e+00  7.67039694e+00  7.67039694e+00  7.67286426e+00
  7.67286426e+00  7.67286426e+00  7.78982515e+00  7.78982515e+00
  7.78982515e+00  8.07039568e+00  8.19993240e+00  8.19993240e+00
  8.30308631e+00  8.30308631e+00  8.30308631e+00  8.33094982e+00
  8.33094982e+00  8.33094982e+00  8.35981579e+00  8.35981579e+00
  8.35981579e+00  9.04493766e+00  9.04493766e+00  9.04493766e+00
  9.09325457e+00  9.09325457e+00  9.09325457e+00  9.39912545e+00
  9.39912545e+00  9.79373471e+00  1.00044471e+01  1.00044471e+01
  1.00437037e+01  1.00437037e+01  1.00437037e+01  1.01519320e+01
  1.01519320e+01  1.01519320e+01  1.04264407e+01  1.04264407e+01
  1.04264407e+01  1.04396083e+01  1.23753856e+01  1.23753856e+01
  1.23753856e+01  2.06100492e+01]
nelec by numeric integration = 8.000033716679264
    CPU time for vxc     20.99 sec, wall time      0.22 sec
    CPU time for df-vj      3.31 sec, wall time      0.05 sec
E1 = -29.67483082459599  Ecoul = 15.179478889465699  Exc = -3.090046172404787
cycle= 5 E= -7.99957846403751  delta_E= -2.68e-07  |g|= 0.000242  |ddm|= 0.00335
    CPU time for cycle= 5     27.80 sec, wall time      0.31 sec
  HOMO = -0.348371016790161  LUMO = 0.0129669390569221
  mo_energy =
[-6.31671665e-01 -3.48371017e-01 -3.48371017e-01 -3.48371017e-01
  1.29669391e-02  8.38238715e-02  8.38238715e-02  8.38238715e-02
  1.52755729e-01  1.52755729e-01  1.52755729e-01  3.24519775e-01
  3.34491048e-01  3.34491048e-01  3.45204932e-01  3.45204932e-01
  3.45204932e-01  4.24573109e-01  6.19910477e-01  6.19910477e-01
  6.19910477e-01  6.54190128e-01  6.54190128e-01  6.54190128e-01
  7.44551412e-01  7.44551412e-01  7.44551412e-01  9.47238965e-01
  9.47238965e-01  9.47238965e-01  9.72997320e-01  9.72997320e-01
  9.74036223e-01  1.10525136e+00  1.10525136e+00  1.10525136e+00
  1.15792694e+00  1.66855280e+00  1.66855280e+00  1.66855280e+00
  1.74073464e+00  1.74073464e+00  1.74138489e+00  1.74138489e+00
  1.74138489e+00  1.83608463e+00  1.83608463e+00  1.83608463e+00
  1.88647909e+00  2.06595812e+00  2.06595812e+00  2.06595812e+00
  2.21512146e+00  2.21512146e+00  2.26901855e+00  2.26901855e+00
  2.26901855e+00  2.36422893e+00  2.36422893e+00  2.36422893e+00
  2.36543859e+00  2.36543859e+00  2.47339785e+00  2.81183817e+00
  2.81183817e+00  2.81183817e+00  2.86271576e+00  2.86271576e+00
  2.86271576e+00  2.99993993e+00  3.11024325e+00  3.11024325e+00
  3.11024325e+00  3.11219603e+00  3.11219603e+00  3.11219603e+00
  3.18006966e+00  3.18006966e+00  3.18006966e+00  3.61910719e+00
  3.78215705e+00  3.78215705e+00  3.78215705e+00  3.82916571e+00
  3.82916571e+00  5.11965932e+00  5.11965932e+00  5.11965932e+00
  5.22617769e+00  5.22617769e+00  5.22617769e+00  5.23461222e+00
  5.23461222e+00  5.51870362e+00  5.72997586e+00  5.72997586e+00
  5.72997586e+00  5.89761789e+00  5.89761789e+00  5.89761789e+00
  5.91302341e+00  5.99401708e+00  5.99401708e+00  5.99401708e+00
  6.07383990e+00  6.07383990e+00  6.07383990e+00  6.07650353e+00
  6.25706582e+00  6.25706582e+00  6.25706582e+00  6.61238940e+00
  6.61238940e+00  6.61238940e+00  6.64841810e+00  6.91022088e+00
  6.91022088e+00  7.27175334e+00  7.27175334e+00  7.27175334e+00
  7.28915976e+00  7.28915976e+00  7.28915976e+00  7.32694756e+00
  7.32694756e+00  7.34776150e+00  7.60169048e+00  7.60169048e+00
  7.60169048e+00  7.67041113e+00  7.67041113e+00  7.67290006e+00
  7.67290006e+00  7.67290006e+00  7.78985623e+00  7.78985623e+00
  7.78985623e+00  8.07041271e+00  8.19997480e+00  8.19997480e+00
  8.30310220e+00  8.30310220e+00  8.30310220e+00  8.33098673e+00
  8.33098673e+00  8.33098673e+00  8.35984685e+00  8.35984685e+00
  8.35984685e+00  9.04497759e+00  9.04497759e+00  9.04497759e+00
  9.09328475e+00  9.09328475e+00  9.09328475e+00  9.39915276e+00
  9.39915276e+00  9.79376743e+00  1.00044802e+01  1.00044802e+01
  1.00437262e+01  1.00437262e+01  1.00437262e+01  1.01519576e+01
  1.01519576e+01  1.01519576e+01  1.04264587e+01  1.04264587e+01
  1.04264587e+01  1.04396393e+01  1.23754020e+01  1.23754020e+01
  1.23754020e+01  2.06099939e+01]
nelec by numeric integration = 8.000033719501438
    CPU time for vxc     21.08 sec, wall time      0.23 sec
    CPU time for df-vj      3.42 sec, wall time      0.05 sec
E1 = -29.67494532433468  Ecoul = 15.179592223258167  Exc = -3.090045019667339
cycle= 6 E= -7.99957847724628  delta_E= -1.32e-08  |g|= 1.56e-05  |ddm|= 0.000507
    CPU time for cycle= 6     27.35 sec, wall time      0.32 sec
  HOMO = -0.34837386584002  LUMO = 0.0129656434751526
  mo_energy =
[-6.31674855e-01 -3.48373866e-01 -3.48373866e-01 -3.48373866e-01
  1.29656435e-02  8.38222431e-02  8.38222431e-02  8.38222431e-02
  1.52754773e-01  1.52754773e-01  1.52754773e-01  3.24518311e-01
  3.34489516e-01  3.34489516e-01  3.45203103e-01  3.45203103e-01
  3.45203103e-01  4.24571990e-01  6.19908983e-01  6.19908983e-01
  6.19908983e-01  6.54188610e-01  6.54188610e-01  6.54188610e-01
  7.44550042e-01  7.44550042e-01  7.44550042e-01  9.47237144e-01
  9.47237144e-01  9.47237144e-01  9.72995430e-01  9.72995430e-01
  9.74034189e-01  1.10524934e+00  1.10524934e+00  1.10524934e+00
  1.15792537e+00  1.66855101e+00  1.66855101e+00  1.66855101e+00
  1.74073233e+00  1.74073233e+00  1.74138244e+00  1.74138244e+00
  1.74138244e+00  1.83608247e+00  1.83608247e+00  1.83608247e+00
  1.88647710e+00  2.06595662e+00  2.06595662e+00  2.06595662e+00
  2.21511972e+00  2.21511972e+00  2.26901657e+00  2.26901657e+00
  2.26901657e+00  2.36422749e+00  2.36422749e+00  2.36422749e+00
  2.36543694e+00  2.36543694e+00  2.47339575e+00  2.81183640e+00
  2.81183640e+00  2.81183640e+00  2.86271403e+00  2.86271403e+00
  2.86271403e+00  2.99993791e+00  3.11024074e+00  3.11024074e+00
  3.11024074e+00  3.11219421e+00  3.11219421e+00  3.11219421e+00
  3.18006754e+00  3.18006754e+00  3.18006754e+00  3.61910447e+00
  3.78215419e+00  3.78215419e+00  3.78215419e+00  3.82916305e+00
  3.82916305e+00  5.11965602e+00  5.11965602e+00  5.11965602e+00
  5.22617403e+00  5.22617403e+00  5.22617403e+00  5.23460918e+00
  5.23460918e+00  5.51870018e+00  5.72997292e+00  5.72997292e+00
  5.72997292e+00  5.89761568e+00  5.89761568e+00  5.89761568e+00
  5.91302179e+00  5.99401474e+00  5.99401474e+00  5.99401474e+00
  6.07383748e+00  6.07383748e+00  6.07383748e+00  6.07650134e+00
  6.25706264e+00  6.25706264e+00  6.25706264e+00  6.61238629e+00
  6.61238629e+00  6.61238629e+00  6.64841557e+00  6.91021738e+00
  6.91021738e+00  7.27175112e+00  7.27175112e+00  7.27175112e+00
  7.28915751e+00  7.28915751e+00  7.28915751e+00  7.32694514e+00
  7.32694514e+00  7.34775938e+00  7.60168856e+00  7.60168856e+00
  7.60168856e+00  7.67040890e+00  7.67040890e+00  7.67289843e+00
  7.67289843e+00  7.67289843e+00  7.78985443e+00  7.78985443e+00
  7.78985443e+00  8.07040996e+00  8.19997278e+00  8.19997278e+00
  8.30309907e+00  8.30309907e+00  8.30309907e+00  8.33098491e+00
  8.33098491e+00  8.33098491e+00  8.35984482e+00  8.35984482e+00
  8.35984482e+00  9.04497549e+00  9.04497549e+00  9.04497549e+00
  9.09328229e+00  9.09328229e+00  9.09328229e+00  9.39915017e+00
  9.39915017e+00  9.79376493e+00  1.00044779e+01  1.00044779e+01
  1.00437232e+01  1.00437232e+01  1.00437232e+01  1.01519546e+01
  1.01519546e+01  1.01519546e+01  1.04264556e+01  1.04264556e+01
  1.04264556e+01  1.04396362e+01  1.23753985e+01  1.23753985e+01
  1.23753985e+01  2.06099874e+01]
nelec by numeric integration = 8.000033719285463
    CPU time for vxc     19.91 sec, wall time      0.21 sec
    CPU time for df-vj      3.32 sec, wall time      0.05 sec
E1 = -29.674967932353137  Ecoul = 15.179619344067728  Exc = -3.0900495325196387
cycle= 7 E= -7.99957847730748  delta_E= -6.12e-11  |g|= 1.13e-07  |ddm|= 2.78e-05
    CPU time for cycle= 7     32.35 sec, wall time      0.39 sec
  HOMO = -0.348373822095421  LUMO = 0.0129656610719511
  mo_energy =
[-6.31674805e-01 -3.48373822e-01 -3.48373822e-01 -3.48373822e-01
  1.29656611e-02  8.38222568e-02  8.38222568e-02  8.38222568e-02
  1.52754800e-01  1.52754800e-01  1.52754800e-01  3.24518334e-01
  3.34489535e-01  3.34489535e-01  3.45203132e-01  3.45203132e-01
  3.45203132e-01  4.24572015e-01  6.19908995e-01  6.19908995e-01
  6.19908995e-01  6.54188632e-01  6.54188632e-01  6.54188632e-01
  7.44550065e-01  7.44550065e-01  7.44550065e-01  9.47237156e-01
  9.47237156e-01  9.47237156e-01  9.72995443e-01  9.72995443e-01
  9.74034208e-01  1.10524937e+00  1.10524937e+00  1.10524937e+00
  1.15792539e+00  1.66855103e+00  1.66855103e+00  1.66855103e+00
  1.74073237e+00  1.74073237e+00  1.74138248e+00  1.74138248e+00
  1.74138248e+00  1.83608250e+00  1.83608250e+00  1.83608250e+00
  1.88647713e+00  2.06595664e+00  2.06595664e+00  2.06595664e+00
  2.21511974e+00  2.21511974e+00  2.26901660e+00  2.26901660e+00
  2.26901660e+00  2.36422751e+00  2.36422751e+00  2.36422751e+00
  2.36543696e+00  2.36543696e+00  2.47339577e+00  2.81183642e+00
  2.81183642e+00  2.81183642e+00  2.86271405e+00  2.86271405e+00
  2.86271405e+00  2.99993794e+00  3.11024078e+00  3.11024078e+00
  3.11024078e+00  3.11219423e+00  3.11219423e+00  3.11219423e+00
  3.18006756e+00  3.18006756e+00  3.18006756e+00  3.61910450e+00
  3.78215423e+00  3.78215423e+00  3.78215423e+00  3.82916308e+00
  3.82916308e+00  5.11965607e+00  5.11965607e+00  5.11965607e+00
  5.22617408e+00  5.22617408e+00  5.22617408e+00  5.23460922e+00
  5.23460922e+00  5.51870024e+00  5.72997297e+00  5.72997297e+00
  5.72997297e+00  5.89761571e+00  5.89761571e+00  5.89761571e+00
  5.91302181e+00  5.99401477e+00  5.99401477e+00  5.99401477e+00
  6.07383752e+00  6.07383752e+00  6.07383752e+00  6.07650137e+00
  6.25706268e+00  6.25706268e+00  6.25706268e+00  6.61238634e+00
  6.61238634e+00  6.61238634e+00  6.64841561e+00  6.91021743e+00
  6.91021743e+00  7.27175115e+00  7.27175115e+00  7.27175115e+00
  7.28915755e+00  7.28915755e+00  7.28915755e+00  7.32694518e+00
  7.32694518e+00  7.34775942e+00  7.60168859e+00  7.60168859e+00
  7.60168859e+00  7.67040894e+00  7.67040894e+00  7.67289847e+00
  7.67289847e+00  7.67289847e+00  7.78985446e+00  7.78985446e+00
  7.78985446e+00  8.07041000e+00  8.19997281e+00  8.19997281e+00
  8.30309912e+00  8.30309912e+00  8.30309912e+00  8.33098494e+00
  8.33098494e+00  8.33098494e+00  8.35984486e+00  8.35984486e+00
  8.35984486e+00  9.04497552e+00  9.04497552e+00  9.04497552e+00
  9.09328233e+00  9.09328233e+00  9.09328233e+00  9.39915021e+00
  9.39915021e+00  9.79376497e+00  1.00044779e+01  1.00044779e+01
  1.00437233e+01  1.00437233e+01  1.00437233e+01  1.01519547e+01
  1.01519547e+01  1.01519547e+01  1.04264556e+01  1.04264556e+01
  1.04264556e+01  1.04396363e+01  1.23753985e+01  1.23753985e+01
  1.23753985e+01  2.06099875e+01]
nelec by numeric integration = 8.00003371928641
    CPU time for vxc     23.09 sec, wall time      0.27 sec
    CPU time for df-vj      2.97 sec, wall time      0.06 sec
E1 = -29.674967531324764  Ecoul = 15.17961886037058  Exc = -3.0900494498506594
Extra cycle  E= -7.99957847730728  delta_E= 2.06e-13  |g|= 1.55e-07  |ddm|= 4.86e-07
    CPU time for scf_cycle    304.51 sec, wall time      3.74 sec
    CPU time for SCF    304.64 sec, wall time      3.74 sec
converged SCF energy = -7.99957847730728
