#INFO: **** input file is /home/nkousuke/lustre/toBeSync/turboRVB/05turbo-genius-development/turbogenius_paper/04data/sanity_checks/02pyscf_prep_LDA_via_trexio/00open_boundary/results/C2H2/pyscf-LDA-workflow/run.py ****

from pyscf_wrapper import Pyscf_wrapper

# input variables
pyscf_chkfile="pyscf.chk"
structure_file="C2H2.xyz"

# input variables
omp_num_threads=128
charge=0
spin=0
basis="ccecp-ccpvqz"
ecp="ccecp"
scf_method="DFT"
dft_xc="LDA_X,LDA_C_PZ"
solver_newton=False
MP2_flag=False
CCSD_flag=False
pyscf_output="out.pyscf"
twist_average=False
exp_to_discard=0.1
kpt=[0.0, 0.0, 0.0]
kpt_grid=[1, 1, 1]
smearing_method="fermi"
smearing_sigma=0.0

pyscf_calc=Pyscf_wrapper(
                        structure_file=structure_file,
                        chkfile=pyscf_chkfile,
                        )

pyscf_calc.run_pyscf(
                  omp_num_threads=omp_num_threads,
                  charge=charge,
                  spin=spin,
                  basis=basis,
                  ecp=ecp,
                  scf_method=scf_method,
                  dft_xc=dft_xc,
                  solver_newton=solver_newton,
                  MP2_flag=MP2_flag,
                  CCSD_flag=CCSD_flag,
                  pyscf_output=pyscf_output,
                  twist_average=twist_average,
                  exp_to_discard=exp_to_discard,
                  kpt=kpt,
                  kpt_grid=kpt_grid,
                  smearing_method=smearing_method,
                  smearing_sigma=smearing_sigma
                  )
                #INFO: ******************** input file end ********************


System: uname_result(system='Linux', node='spcc-109', release='5.4.0-66-generic', version='#74-Ubuntu SMP Wed Jan 27 22:54:38 UTC 2021', machine='x86_64', processor='x86_64')  Threads 128
Python 3.7.3 (default, Mar 27 2019, 22:11:17) 
[GCC 7.3.0]
numpy 1.20.1  scipy 1.7.3
Date: Thu Dec 22 06:20:23 2022
PySCF version 2.0.1
PySCF path  /home/nkousuke/application/anaconda3/lib/python3.7/site-packages/pyscf

[CONFIG] conf_file /home/nkousuke/.pyscf_conf.py
[INPUT] verbose = 5
[INPUT] max_memory = 507817.21484375 
[INPUT] num. atoms = 4
[INPUT] num. electrons = 10
[INPUT] charge = 0
[INPUT] spin (= nelec alpha-beta = 2S) = 0
[INPUT] symmetry False subgroup None
[INPUT] Mole.unit = A
[INPUT]  1 C      0.000000000000   0.000000000000   0.601200000000 AA    0.000000000000   0.000000000000   1.136103346089 Bohr
[INPUT]  2 C      0.000000000000   0.000000000000  -0.601200000000 AA    0.000000000000   0.000000000000  -1.136103346089 Bohr
[INPUT]  3 H      0.000000000000   0.000000000000  -1.663700000000 AA    0.000000000000   0.000000000000  -3.143937353439 Bohr
[INPUT]  4 H      0.000000000000   0.000000000000   1.663700000000 AA    0.000000000000   0.000000000000   3.143937353439 Bohr
[INPUT] ---------------- BASIS SET ---------------- 
[INPUT] l, kappa, [nprim/nctr], expnt,             c_1 c_2 ...
[INPUT] H
[INPUT] 0    0    [8    /1   ]  23.843185         0.0041149
                                10.212443         0.0104644
                                4.374164          0.0280111
                                1.873529          0.0758862
                                0.802465          0.1821062
                                0.343709          0.3485214
                                0.147217          0.3782313
                                0.063055          0.1164241
[INPUT] 0    0    [1    /1   ]  0.081856             1
[INPUT] 0    0    [1    /1   ]  0.233254             1
[INPUT] 0    0    [1    /1   ]  0.664673             1
[INPUT] 1    0    [1    /1   ]  0.284469             1
[INPUT] 1    0    [1    /1   ]  0.847159             1
[INPUT] 1    0    [1    /1   ]  2.522868             1
[INPUT] 2    0    [1    /1   ]  0.665279             1
[INPUT] 2    0    [1    /1   ]  2.048739             1
[INPUT] 3    0    [1    /1   ]  1.42146              1
[INPUT] C
[INPUT] 0    0    [9    /1   ]  13.073594         0.0051583
                                6.541187          0.0603424
                                4.573411          -0.1978471
                                1.637494          -0.081034
                                0.819297          0.2321726
                                0.409924          0.2914643
                                0.2313            0.4336405
                                0.102619          0.213194
                                0.051344          0.0049848
[INPUT] 0    0    [1    /1   ]  0.846879             1
[INPUT] 0    0    [1    /1   ]  0.269659             1
[INPUT] 0    0    [1    /1   ]  0.109576             1
[INPUT] 1    0    [9    /1   ]  9.934169          0.0209076
                                3.886955          0.0572698
                                1.871016          0.1122682
                                0.935757          0.2130082
                                0.468003          0.2835815
                                0.239473          0.3011207
                                0.117063          0.2016934
                                0.058547          0.0453575
                                0.029281          0.0029775
[INPUT] 1    0    [1    /1   ]  0.804681             1
[INPUT] 1    0    [1    /1   ]  0.313254             1
[INPUT] 1    0    [1    /1   ]  0.105389             1
[INPUT] 2    0    [1    /1   ]  2.01376              1
[INPUT] 2    0    [1    /1   ]  0.684884             1
[INPUT] 2    0    [1    /1   ]  0.240171             1
[INPUT] 3    0    [1    /1   ]  0.457302             1
[INPUT] 3    0    [1    /1   ]  1.32493              1
[INPUT] 4    0    [1    /1   ]  1.03418              1

nuclear repulsion = 13.0541833894748
number of shells = 48
number of NR pGTOs = 246
number of NR cGTOs = 168
basis = ccecp-ccpvqz
ecp = ccecp
CPU time:         5.16


******** <class 'pyscf.df.df_jk.density_fit.<locals>.DFHF'> ********
method = DFHF-RKS-RHF
initial guess = minao
damping factor = 0
level_shift factor = 0
DIIS = <class 'pyscf.scf.diis.CDIIS'>
diis_start_cycle = 1
diis_space = 8
SCF conv_tol = 1e-09
SCF conv_tol_grad = None
SCF max_cycles = 200
direct_scf = True
direct_scf_tol = 1e-13
chkfile to save SCF result = pyscf.chk
max_memory 507817 MB (current use 106 MB)
XC library pyscf.dft.libxc version 5.1.7
    S. Lehtola, C. Steigemann, M. J. Oliveira, and M. A. Marques, SoftwareX 7, 1 (2018)
XC functionals = LDA_X,LDA_C_PZ
    P. A. M. Dirac, Math. Proc. Cambridge Philos. Soc. 26, 376 (1930)
    F. Bloch, Z. Phys. 57, 545 (1929)
    J. P. Perdew and A. Zunger, Phys. Rev. B 23, 5048 (1981)
radial grids: 
    Treutler-Ahlrichs [JCP 102, 346 (1995); DOI:10.1063/1.469408] (M4) radial grids
    
becke partition: Becke, JCP 88, 2547 (1988); DOI:10.1063/1.454033
pruning grids: <function nwchem_prune at 0x14ebedcf47b8>
grids dens level: 3
symmetrized grids: False
atomic radii adjust function: <function treutler_atomic_radii_adjust at 0x14ebedcf46a8>
small_rho_cutoff = 1e-07
Set gradient conv threshold to 3.16228e-05
atom C rad-grids = 75, ang-grids = [ 50  50  50  50  50  50  50  50  50  50  50  50  50  50  50  50  50  50
  50  50  50  50  50  86  86  86  86  86  86  86  86  86  86 266 266 266
 266 266 266 266 302 302 302 302 302 302 302 302 302 302 302 302 302 302
 302 302 302 302 302 302 266 266 266 266 266 266 266 266 266 266 266 266
 266 266 266]
atom H rad-grids = 50, ang-grids = [ 50  50  50  50  50  50  50  50  50  50  50  50  50  50  86  86  86  86
 266 266 266 266 302 302 302 302 302 302 302 302 302 302 302 302 302 266
 266 266 266 266 266 266 266 266 266 266 266 266 266 266]
tot grids = 47852
Drop grids 3460
    CPU time for setting up grids     45.14 sec, wall time      0.38 sec
nelec by numeric integration = 9.999928694798623
    CPU time for vxc     36.82 sec, wall time      0.29 sec
Even tempered Gaussians are generated as DF auxbasis for  H C
  ETB auxbasis for H  [[0, [32.28416, 1]], [0, [16.14208, 1]], [0, [8.07104, 1]], [0, [4.03552, 1]], [0, [2.01776, 1]], [0, [1.00888, 1]], [0, [0.50444, 1]], [0, [0.25222, 1]], [0, [0.12611, 1]], [1, [8.571507550502421, 1]], [1, [4.2857537752512105, 1]], [1, [2.1428768876256052, 1]], [1, [1.0714384438128026, 1]], [1, [0.5357192219064013, 1]], [1, [0.26785961095320066, 1]], [2, [4.551504, 1]], [2, [2.275752, 1]], [2, [1.137876, 1]], [2, [0.568938, 1]]]
  ETB auxbasis for C  [[0, [13.144064, 1]], [0, [6.572032, 1]], [0, [3.286016, 1]], [0, [1.643008, 1]], [0, [0.821504, 1]], [0, [0.410752, 1]], [0, [0.205376, 1]], [0, [0.102688, 1]], [1, [19.852159834527225, 1]], [1, [9.926079917263612, 1]], [1, [4.963039958631806, 1]], [1, [2.481519979315903, 1]], [1, [1.2407599896579515, 1]], [1, [0.6203799948289758, 1]], [1, [0.3101899974144879, 1]], [1, [0.15509499870724394, 1]], [1, [0.07754749935362197, 1]], [2, [14.991872, 1]], [2, [7.495936, 1]], [2, [3.747968, 1]], [2, [1.873984, 1]], [2, [0.936992, 1]], [2, [0.468496, 1]], [2, [0.234248, 1]], [2, [0.117124, 1]], [2, [0.058562, 1]], [3, [5.36701994787573, 1]], [3, [2.683509973937865, 1]], [3, [1.3417549869689325, 1]], [3, [0.6708774934844662, 1]], [3, [0.3354387467422331, 1]], [3, [0.16771937337111656, 1]], [4, [3.842736, 1]], [4, [1.921368, 1]], [4, [0.960684, 1]], [4, [0.480342, 1]]]
num shells = 110, num cGTOs = 410
    CPU time for df-vj     34.33 sec, wall time      0.27 sec
E1 = -42.27254733991942  Ecoul = 21.100354408093867  Exc = -3.7898677587909004
init E= -11.9078773011416
cond(S) = 256159.85561523412
    CPU time for initialize scf    263.54 sec, wall time      2.23 sec
  HOMO = -0.39308994025328  LUMO = -0.099622842269282
  mo_energy =
[-8.76900449e-01 -5.90370453e-01 -5.47935284e-01 -3.93089940e-01
 -3.93089940e-01 -9.96228423e-02 -9.96228423e-02  6.58554922e-03
  2.41584999e-02  6.10838083e-02  1.31963816e-01  1.52885710e-01
  1.52885710e-01  2.34339147e-01  2.34339147e-01  2.71899302e-01
  2.84216073e-01  3.48203649e-01  3.48203653e-01  4.09393840e-01
  4.09393840e-01  4.74812723e-01  4.80412363e-01  5.92882308e-01
  6.00658441e-01  6.00658516e-01  6.22593729e-01  6.22593729e-01
  6.94578138e-01  8.90610910e-01  8.96405527e-01  8.96405527e-01
  8.98765785e-01  8.98765785e-01  9.25937823e-01  1.02060133e+00
  1.17454885e+00  1.17454885e+00  1.23066721e+00  1.34305728e+00
  1.34305728e+00  1.41530453e+00  1.41530457e+00  1.44124307e+00
  1.59140703e+00  1.59140703e+00  1.65271603e+00  1.65271603e+00
  1.66349720e+00  1.67389942e+00  1.67389948e+00  1.71364307e+00
  1.71364307e+00  1.75287675e+00  1.75287675e+00  1.80032356e+00
  1.80032396e+00  1.89928838e+00  1.95957790e+00  1.95957790e+00
  2.00636457e+00  2.00636471e+00  2.06764080e+00  2.07842573e+00
  2.27770972e+00  2.37650462e+00  2.37650462e+00  2.40657577e+00
  2.40657606e+00  2.59581868e+00  2.70061378e+00  2.70061378e+00
  2.88870936e+00  2.88870965e+00  3.02461207e+00  3.27740765e+00
  3.34974895e+00  3.34974895e+00  3.50582348e+00  3.58952708e+00
  3.58952708e+00  3.90809435e+00  3.90809435e+00  4.00956105e+00
  4.06930408e+00  4.14430442e+00  4.29400711e+00  4.29400711e+00
  4.55987531e+00  4.55988269e+00  4.69722818e+00  4.69722838e+00
  4.93612267e+00  4.93613122e+00  4.93645532e+00  4.93658515e+00
  4.93658515e+00  5.11306718e+00  5.11306718e+00  5.22594437e+00
  5.22594437e+00  5.25271777e+00  5.25271777e+00  5.28030564e+00
  5.28030863e+00  5.28241139e+00  5.28241310e+00  5.41116421e+00
  5.41116421e+00  5.41951869e+00  5.41951869e+00  5.43222576e+00
  5.43222576e+00  5.53170527e+00  5.77253673e+00  5.77253673e+00
  5.79272932e+00  6.02993014e+00  6.02993014e+00  6.10642318e+00
  6.10642923e+00  6.23658140e+00  6.23658650e+00  6.39877219e+00
  6.39877219e+00  6.57022402e+00  6.64658602e+00  6.68465419e+00
  6.68465422e+00  7.03392265e+00  7.03392265e+00  7.19952802e+00
  7.29533298e+00  7.31860234e+00  7.52862040e+00  7.52862040e+00
  7.58899977e+00  7.58899977e+00  7.60269124e+00  7.60269906e+00
  7.75996259e+00  7.76214588e+00  7.76214588e+00  7.84045253e+00
  7.84045894e+00  7.93299656e+00  7.93299664e+00  8.23775152e+00
  8.65028870e+00  8.65028870e+00  8.77548655e+00  8.85415494e+00
  8.85415737e+00  8.96090870e+00  9.24789897e+00  9.24789897e+00
  9.78866695e+00  9.78866695e+00  1.04538124e+01  1.12073581e+01
  1.12073581e+01  1.13198438e+01  1.15175305e+01  1.15175305e+01
  1.23014812e+01  1.35352368e+01  1.90157558e+01  2.01990166e+01]
nelec by numeric integration = 9.999999971986467
    CPU time for vxc     35.82 sec, wall time      0.29 sec
    CPU time for df-vj      6.07 sec, wall time      0.05 sec
E1 = -44.79058840103759  Ecoul = 23.641090773967633  Exc = -4.19392449615966
cycle= 1 E= -12.2892387337548  delta_E= -0.381  |g|= 0.605  |ddm|= 5.12
    CPU time for cycle= 1     47.01 sec, wall time      0.38 sec
  HOMO = -0.143679407971969  LUMO = 0.0496833798839577
  mo_energy =
[-0.53609517 -0.45198669 -0.33032969 -0.14367941 -0.14367941  0.04968338
  0.06195722  0.06238272  0.06238272  0.15588262  0.20441282  0.26070574
  0.26070574  0.31379206  0.3427896   0.3427896   0.35462089  0.46691752
  0.46691752  0.46861551  0.46861551  0.51627555  0.57048684  0.66044818
  0.66044818  0.68765034  0.6876504   0.70657338  0.77691113  0.95198198
  0.9948141   0.99674765  0.99674765  1.0081032   1.0081032   1.2326721
  1.31482021  1.38876675  1.38876675  1.4948268   1.4948268   1.50612886
  1.57398116  1.57398119  1.67555728  1.67555728  1.79079943  1.79079943
  1.84154001  1.84154001  1.84420244  1.85252873  1.85252881  1.89786165
  1.89786185  1.90480952  1.90480952  2.04516782  2.11366119  2.11366119
  2.1618619   2.16186196  2.17411817  2.27596245  2.35791627  2.46194948
  2.46194948  2.48972468  2.48972492  2.64745797  2.77523399  2.77523399
  3.00039054  3.00039077  3.14885195  3.39999546  3.46871076  3.46871076
  3.6450353   3.73714857  3.73714857  4.04101874  4.04101874  4.12339424
  4.36993941  4.38433087  4.53815549  4.53815549  4.78658699  4.78659403
  5.05599705  5.05599739  5.15383865  5.1538468   5.28952934  5.3016652
  5.3016652   5.38632137  5.38632137  5.4318787   5.4318787   5.44395803
  5.44395945  5.45131997  5.45132251  5.49137488  5.49137488  5.61481212
  5.61481212  5.68221585  5.68221585  5.70717505  5.70717505  5.74095833
  6.00188678  6.0026244   6.0026244   6.08872469  6.08872469  6.42331535
  6.42332113  6.52608624  6.52608624  6.58527747  6.58528268  6.77294976
  6.87598333  6.88806542  6.88806594  7.27209263  7.31332556  7.31332556
  7.40403481  7.56896231  7.56896231  7.60546922  7.65484643  7.65484643
  7.69330419  7.69331102  7.82032673  7.88135919  7.88136435  8.01531991
  8.01532018  8.02065389  8.02065389  8.34304943  8.81429341  8.81429341
  8.99594146  9.0317303   9.03173255  9.16086706  9.31056649  9.31056649
  9.96985698  9.96985698 10.59767133 11.39523895 11.39523895 11.54227487
 11.6880001  11.6880001  12.52411982 13.80127074 19.4248705  20.63507977]
nelec by numeric integration = 9.999999865468043
    CPU time for vxc     32.27 sec, wall time      0.26 sec
    CPU time for df-vj      7.46 sec, wall time      0.06 sec
E1 = -42.10744913078515  Ecoul = 20.53817115409084  Exc = -3.7035953126760823
cycle= 2 E= -12.2186898998956  delta_E= 0.0705  |g|= 0.761  |ddm|= 2.26
    CPU time for cycle= 2     82.25 sec, wall time      0.65 sec
  HOMO = -0.276740034173408  LUMO = -0.0209205044408433
  mo_energy =
[-0.69903861 -0.52424182 -0.45472368 -0.27674003 -0.27674003 -0.0209205
 -0.0209205   0.02830065  0.04205914  0.10235514  0.16575746  0.19470535
  0.19470535  0.2748811   0.2748811   0.28955822  0.31378675  0.40035585
  0.40035585  0.43585803  0.43585803  0.49212449  0.52576346  0.6368991
  0.63689917  0.63883314  0.63883314  0.64322889  0.73211885  0.91899456
  0.94064831  0.94064831  0.94400812  0.94400812  0.95535096  1.11057765
  1.26672956  1.26672956  1.27074754  1.40852854  1.40852854  1.47098476
  1.49006718  1.49006721  1.6302635   1.6302635   1.72002321  1.72002321
  1.74362596  1.74697371  1.74697379  1.76730105  1.76730105  1.81723689
  1.81723689  1.84487554  1.84487582  1.96464892  2.0248986   2.0248986
  2.07019829  2.0701984   2.11283628  2.16558273  2.3132672   2.41378826
  2.41378826  2.44103829  2.44103859  2.6182045   2.73240413  2.73240413
  2.93530275  2.93530312  3.08049862  3.33527112  3.4071321   3.4071321
  3.57121591  3.65149177  3.65149177  3.97091905  3.97091905  4.06062704
  4.20380139  4.25119791  4.4042564   4.4042564   4.65658212  4.6565887
  4.86236999  4.86237008  5.02788934  5.02789696  5.10182811  5.1068854
  5.1068854   5.25043094  5.25043094  5.31237173  5.31237173  5.33828504
  5.33828504  5.35458142  5.35458296  5.35512631  5.35512904  5.50144669
  5.50144669  5.53632884  5.53632884  5.55052829  5.55052829  5.62255026
  5.87113322  5.87113322  5.88699447  6.05669835  6.05669835  6.24238385
  6.24238929  6.38953549  6.38954022  6.4528985   6.4528985   6.66800641
  6.74864285  6.77608534  6.77608565  7.16765834  7.16765834  7.24050697
  7.34869044  7.4498921   7.55420342  7.55420342  7.61312768  7.61312768
  7.64598908  7.64599645  7.78627905  7.86244716  7.86245291  7.8754928
  7.8754928   7.9718896   7.97188964  8.29188861  8.73330599  8.73330599
  8.87290682  8.93371571  8.933718    9.05843651  9.28351615  9.28351615
  9.87181025  9.87181025 10.52584013 11.29417612 11.29417612 11.42527611
 11.59700526 11.59700526 12.40401928 13.65985469 19.19453039 20.39058638]
nelec by numeric integration = 9.999999935918476
    CPU time for vxc     27.62 sec, wall time      0.22 sec
    CPU time for df-vj      3.07 sec, wall time      0.02 sec
E1 = -43.80101260348394  Ecoul = 22.346059476369014  Exc = -3.9867690175811608
cycle= 3 E= -12.3875387552213  delta_E= -0.169  |g|= 0.029  |ddm|= 1.36
    CPU time for cycle= 3     71.73 sec, wall time      0.56 sec
  HOMO = -0.268169889015091  LUMO = -0.0142216901606758
  mo_energy =
[-6.90326430e-01 -5.17741766e-01 -4.48592298e-01 -2.68169889e-01
 -2.68169889e-01 -1.42216902e-02 -1.42216902e-02  2.95702829e-02
  4.31134198e-02  1.04957646e-01  1.68399992e-01  1.98050046e-01
  1.98050046e-01  2.78412338e-01  2.78412338e-01  2.91157115e-01
  3.15953153e-01  4.05714617e-01  4.05714623e-01  4.38371557e-01
  4.38371557e-01  4.93642124e-01  5.28508189e-01  6.40134835e-01
  6.40134835e-01  6.41226151e-01  6.41226220e-01  6.46697297e-01
  7.34798075e-01  9.21059486e-01  9.44665336e-01  9.44665336e-01
  9.47711483e-01  9.47711483e-01  9.57579573e-01  1.11580114e+00
  1.27344568e+00  1.27344568e+00  1.27396618e+00  1.41539447e+00
  1.41539447e+00  1.47316271e+00  1.49637494e+00  1.49637497e+00
  1.63428891e+00  1.63428891e+00  1.72545714e+00  1.72545714e+00
  1.74885790e+00  1.75413028e+00  1.75413037e+00  1.77370548e+00
  1.77370548e+00  1.82290713e+00  1.82290713e+00  1.84995717e+00
  1.84995745e+00  1.97012282e+00  2.02975445e+00  2.02975445e+00
  2.07652909e+00  2.07652922e+00  2.11760968e+00  2.17095027e+00
  2.31638546e+00  2.41645659e+00  2.41645659e+00  2.44486694e+00
  2.44486722e+00  2.62012532e+00  2.73509436e+00  2.73509436e+00
  2.93998522e+00  2.93998558e+00  3.08441945e+00  3.33945323e+00
  3.41181822e+00  3.41181822e+00  3.57588791e+00  3.65717474e+00
  3.65717474e+00  3.97564046e+00  3.97564046e+00  4.06535068e+00
  4.21148914e+00  4.25770555e+00  4.41304575e+00  4.41304575e+00
  4.66614568e+00  4.66615229e+00  4.87134976e+00  4.87134997e+00
  5.03744301e+00  5.03745067e+00  5.10942515e+00  5.11471212e+00
  5.11471212e+00  5.25972324e+00  5.25972324e+00  5.31895628e+00
  5.31895628e+00  5.34832431e+00  5.34832431e+00  5.36206742e+00
  5.36206906e+00  5.36339161e+00  5.36339448e+00  5.50985845e+00
  5.50985845e+00  5.54527730e+00  5.54527730e+00  5.56054844e+00
  5.56054844e+00  5.63084414e+00  5.87896643e+00  5.87896643e+00
  5.89492077e+00  6.05975966e+00  6.05975966e+00  6.25258368e+00
  6.25258926e+00  6.39945787e+00  6.39946273e+00  6.45818103e+00
  6.45818103e+00  6.67337252e+00  6.75631108e+00  6.78351727e+00
  6.78351752e+00  7.17501614e+00  7.17501614e+00  7.24263296e+00
  7.35111857e+00  7.45770588e+00  7.55480202e+00  7.55480202e+00
  7.61467791e+00  7.61467791e+00  7.64918909e+00  7.64919657e+00
  7.78810777e+00  7.86375185e+00  7.86375772e+00  7.88316208e+00
  7.88316208e+00  7.97583315e+00  7.97583328e+00  8.29390741e+00
  8.73813158e+00  8.73813158e+00  8.87918283e+00  8.94030492e+00
  8.94030722e+00  9.06401369e+00  9.28645106e+00  9.28645106e+00
  9.87740384e+00  9.87740384e+00  1.05306077e+01  1.13001821e+01
  1.13001821e+01  1.14306861e+01  1.16025443e+01  1.16025443e+01
  1.24103883e+01  1.36660767e+01  1.92046423e+01  2.04007537e+01]
nelec by numeric integration = 9.999999932615768
    CPU time for vxc     47.78 sec, wall time      0.37 sec
    CPU time for df-vj      9.15 sec, wall time      0.07 sec
E1 = -43.73469739118806  Ecoul = 22.26714673944629  Exc = -3.974468225689369
cycle= 4 E= -12.3878354879563  delta_E= -0.000297  |g|= 0.00338  |ddm|= 0.0588
    CPU time for cycle= 4     93.25 sec, wall time      0.73 sec
  HOMO = -0.26868325412731  LUMO = -0.0148238159967617
  mo_energy =
[-6.90538513e-01 -5.18449617e-01 -4.49033711e-01 -2.68683254e-01
 -2.68683254e-01 -1.48238160e-02 -1.48238160e-02  2.93097625e-02
  4.28247071e-02  1.04648888e-01  1.68133569e-01  1.97632093e-01
  1.97632093e-01  2.77952215e-01  2.77952215e-01  2.90856963e-01
  3.15643253e-01  4.05295876e-01  4.05295877e-01  4.38063576e-01
  4.38063576e-01  4.93331198e-01  5.28207355e-01  6.39863151e-01
  6.39863151e-01  6.40795119e-01  6.40795190e-01  6.46386708e-01
  7.34382332e-01  9.20727463e-01  9.44256321e-01  9.44256321e-01
  9.47293356e-01  9.47293356e-01  9.57206712e-01  1.11542416e+00
  1.27300691e+00  1.27300691e+00  1.27368874e+00  1.41498675e+00
  1.41498675e+00  1.47286906e+00  1.49608087e+00  1.49608091e+00
  1.63389956e+00  1.63389956e+00  1.72499264e+00  1.72499264e+00
  1.74861217e+00  1.75362054e+00  1.75362060e+00  1.77324225e+00
  1.77324225e+00  1.82240446e+00  1.82240446e+00  1.84947130e+00
  1.84947158e+00  1.96954404e+00  2.02945673e+00  2.02945673e+00
  2.07609225e+00  2.07609235e+00  2.11704924e+00  2.17065300e+00
  2.31602290e+00  2.41616867e+00  2.41616867e+00  2.44453870e+00
  2.44453899e+00  2.61988523e+00  2.73482632e+00  2.73482632e+00
  2.93965884e+00  2.93965919e+00  3.08406876e+00  3.33900188e+00
  3.41146167e+00  3.41146167e+00  3.57545316e+00  3.65666938e+00
  3.65666938e+00  3.97534448e+00  3.97534448e+00  4.06496628e+00
  4.21108270e+00  4.25731720e+00  4.41268644e+00  4.41268644e+00
  4.66562795e+00  4.66563456e+00  4.87119337e+00  4.87119372e+00
  5.03687516e+00  5.03688282e+00  5.10928405e+00  5.11465168e+00
  5.11465168e+00  5.25889285e+00  5.25889285e+00  5.31845121e+00
  5.31845121e+00  5.34762690e+00  5.34762690e+00  5.36140507e+00
  5.36140675e+00  5.36251569e+00  5.36251858e+00  5.50891525e+00
  5.50891525e+00  5.54443517e+00  5.54443517e+00  5.55990805e+00
  5.55990805e+00  5.62988504e+00  5.87826605e+00  5.87826605e+00
  5.89415788e+00  6.05954562e+00  6.05954562e+00  6.25169709e+00
  6.25170231e+00  6.39884086e+00  6.39884523e+00  6.45788267e+00
  6.45788267e+00  6.67286331e+00  6.75557725e+00  6.78297822e+00
  6.78297851e+00  7.17454102e+00  7.17454102e+00  7.24252917e+00
  7.35095885e+00  7.45732279e+00  7.55477563e+00  7.55477563e+00
  7.61449377e+00  7.61449377e+00  7.64897653e+00  7.64898407e+00
  7.78792951e+00  7.86371841e+00  7.86372431e+00  7.88253243e+00
  7.88253243e+00  7.97557545e+00  7.97557560e+00  8.29377120e+00
  8.73788677e+00  8.73788677e+00  8.87868997e+00  8.93992436e+00
  8.93992670e+00  9.06356660e+00  9.28624736e+00  9.28624736e+00
  9.87698766e+00  9.87698766e+00  1.05301566e+01  1.12997405e+01
  1.12997405e+01  1.14302283e+01  1.16021772e+01  1.16021772e+01
  1.24098269e+01  1.36655338e+01  1.92035256e+01  2.03997145e+01]
nelec by numeric integration = 9.999999932673209
    CPU time for vxc     41.00 sec, wall time      0.33 sec
    CPU time for df-vj      7.89 sec, wall time      0.06 sec
E1 = -43.737957778351806  Ecoul = 22.27101236437511  Exc = -3.9750763261861763
cycle= 5 E= -12.3878383506881  delta_E= -2.86e-06  |g|= 0.000243  |ddm|= 0.00602
    CPU time for cycle= 5    100.77 sec, wall time      0.81 sec
  HOMO = -0.26875501849838  LUMO = -0.0148643610955532
  mo_energy =
[-6.90620949e-01 -5.18450222e-01 -4.49049504e-01 -2.68755018e-01
 -2.68755018e-01 -1.48643611e-02 -1.48643611e-02  2.92885093e-02
  4.28030325e-02  1.04588020e-01  1.68098118e-01  1.97569140e-01
  1.97569140e-01  2.77909064e-01  2.77909064e-01  2.90830912e-01
  3.15628039e-01  4.05220754e-01  4.05220754e-01  4.38028358e-01
  4.38028358e-01  4.93287255e-01  5.28170184e-01  6.39830600e-01
  6.39830600e-01  6.40740364e-01  6.40740434e-01  6.46331969e-01
  7.34351593e-01  9.20695437e-01  9.44206557e-01  9.44206557e-01
  9.47254590e-01  9.47254590e-01  9.57186556e-01  1.11537567e+00
  1.27294423e+00  1.27294423e+00  1.27364771e+00  1.41490572e+00
  1.41490572e+00  1.47284905e+00  1.49601087e+00  1.49601092e+00
  1.63387517e+00  1.63387517e+00  1.72495476e+00  1.72495476e+00
  1.74854543e+00  1.75356083e+00  1.75356088e+00  1.77317902e+00
  1.77317902e+00  1.82235130e+00  1.82235130e+00  1.84943716e+00
  1.84943745e+00  1.96951828e+00  2.02940861e+00  2.02940861e+00
  2.07604162e+00  2.07604171e+00  2.11703204e+00  2.17059727e+00
  2.31600261e+00  2.41614318e+00  2.41614318e+00  2.44450232e+00
  2.44450260e+00  2.61985124e+00  2.73479627e+00  2.73479627e+00
  2.93960833e+00  2.93960868e+00  3.08403672e+00  3.33899134e+00
  3.41142998e+00  3.41142998e+00  3.57543107e+00  3.65664626e+00
  3.65664626e+00  3.97530509e+00  3.97530509e+00  4.06492808e+00
  4.21102157e+00  4.25726943e+00  4.41260640e+00  4.41260640e+00
  4.66554496e+00  4.66555158e+00  4.87109377e+00  4.87109414e+00
  5.03679919e+00  5.03680685e+00  5.10921892e+00  5.11457255e+00
  5.11457255e+00  5.25886003e+00  5.25886003e+00  5.31842328e+00
  5.31842328e+00  5.34756308e+00  5.34756308e+00  5.36138510e+00
  5.36138678e+00  5.36250719e+00  5.36251009e+00  5.50891322e+00
  5.50891322e+00  5.54440596e+00  5.54440596e+00  5.55983871e+00
  5.55983871e+00  5.62988018e+00  5.87823985e+00  5.87823985e+00
  5.89414153e+00  6.05953442e+00  6.05953442e+00  6.25165785e+00
  6.25166301e+00  6.39878102e+00  6.39878531e+00  6.45784587e+00
  6.45784587e+00  6.67285520e+00  6.75555175e+00  6.78294371e+00
  6.78294401e+00  7.17450716e+00  7.17450716e+00  7.24251977e+00
  7.35095031e+00  7.45727101e+00  7.55475907e+00  7.55475907e+00
  7.61447648e+00  7.61447648e+00  7.64895224e+00  7.64895979e+00
  7.78791702e+00  7.86370441e+00  7.86371031e+00  7.88251191e+00
  7.88251191e+00  7.97557056e+00  7.97557071e+00  8.29375234e+00
  8.73786977e+00  8.73786977e+00  8.87867581e+00  8.93988844e+00
  8.93989080e+00  9.06355433e+00  9.28624389e+00  9.28624389e+00
  9.87697013e+00  9.87697013e+00  1.05301585e+01  1.12997210e+01
  1.12997210e+01  1.14302249e+01  1.16021581e+01  1.16021581e+01
  1.24098156e+01  1.36655312e+01  1.92035263e+01  2.03997107e+01]
nelec by numeric integration = 9.999999932695511
    CPU time for vxc     36.48 sec, wall time      0.29 sec
    CPU time for df-vj      7.98 sec, wall time      0.06 sec
E1 = -43.73798688837175  Ecoul = 22.271022867191345  Exc = -3.975057734142917
cycle= 6 E= -12.3878383658485  delta_E= -1.52e-08  |g|= 3.89e-05  |ddm|= 0.00054
    CPU time for cycle= 6     84.55 sec, wall time      0.66 sec
  HOMO = -0.268768591176492  LUMO = -0.0148780517612248
  mo_energy =
[-6.90636748e-01 -5.18471454e-01 -4.49070878e-01 -2.68768591e-01
 -2.68768591e-01 -1.48780518e-02 -1.48780518e-02  2.92789284e-02
  4.27941991e-02  1.04577902e-01  1.68085894e-01  1.97559768e-01
  1.97559768e-01  2.77898670e-01  2.77898670e-01  2.90823271e-01
  3.15617176e-01  4.05212193e-01  4.05212193e-01  4.38016094e-01
  4.38016094e-01  4.93277085e-01  5.28158755e-01  6.39819134e-01
  6.39819134e-01  6.40731106e-01  6.40731177e-01  6.46321589e-01
  7.34340019e-01  9.20684943e-01  9.44195481e-01  9.44195481e-01
  9.47243915e-01  9.47243915e-01  9.57174123e-01  1.11536147e+00
  1.27293236e+00  1.27293236e+00  1.27363388e+00  1.41489682e+00
  1.41489682e+00  1.47283369e+00  1.49599894e+00  1.49599899e+00
  1.63385998e+00  1.63385998e+00  1.72493922e+00  1.72493922e+00
  1.74853398e+00  1.75354708e+00  1.75354713e+00  1.77316952e+00
  1.77316952e+00  1.82233994e+00  1.82233994e+00  1.84942351e+00
  1.84942379e+00  1.96950213e+00  2.02939328e+00  2.02939328e+00
  2.07602754e+00  2.07602763e+00  2.11701754e+00  2.17058423e+00
  2.31598691e+00  2.41612769e+00  2.41612769e+00  2.44448886e+00
  2.44448915e+00  2.61983750e+00  2.73478123e+00  2.73478123e+00
  2.93959609e+00  2.93959643e+00  3.08402046e+00  3.33897279e+00
  3.41141293e+00  3.41141293e+00  3.57541247e+00  3.65662958e+00
  3.65662958e+00  3.97528916e+00  3.97528916e+00  4.06491229e+00
  4.21100544e+00  4.25725326e+00  4.41259162e+00  4.41259162e+00
  4.66553243e+00  4.66553905e+00  4.87107872e+00  4.87107909e+00
  5.03678646e+00  5.03679412e+00  5.10920254e+00  5.11455621e+00
  5.11455621e+00  5.25884355e+00  5.25884355e+00  5.31840599e+00
  5.31840599e+00  5.34754745e+00  5.34754745e+00  5.36136567e+00
  5.36136735e+00  5.36248747e+00  5.36249036e+00  5.50889204e+00
  5.50889204e+00  5.54438859e+00  5.54438859e+00  5.55982321e+00
  5.55982321e+00  5.62986069e+00  5.87822072e+00  5.87822072e+00
  5.89412070e+00  6.05951571e+00  6.05951571e+00  6.25164046e+00
  6.25164561e+00  6.39876474e+00  6.39876901e+00  6.45782888e+00
  6.45782888e+00  6.67283313e+00  6.75553333e+00  6.78292451e+00
  6.78292481e+00  7.17448819e+00  7.17448819e+00  7.24249615e+00
  7.35092838e+00  7.45725274e+00  7.55473925e+00  7.55473925e+00
  7.61445809e+00  7.61445809e+00  7.64893375e+00  7.64894130e+00
  7.78789727e+00  7.86368409e+00  7.86368999e+00  7.88249077e+00
  7.88249077e+00  7.97554729e+00  7.97554744e+00  8.29373244e+00
  8.73784629e+00  8.73784629e+00  8.87865474e+00  8.93986885e+00
  8.93987120e+00  9.06353076e+00  9.28621941e+00  9.28621941e+00
  9.87694814e+00  9.87694814e+00  1.05301325e+01  1.12996990e+01
  1.12996990e+01  1.14302006e+01  1.16021364e+01  1.16021364e+01
  1.24097939e+01  1.36655072e+01  1.92035064e+01  2.03996914e+01]
nelec by numeric integration = 9.999999932696003
    CPU time for vxc     33.77 sec, wall time      0.27 sec
    CPU time for df-vj      8.88 sec, wall time      0.07 sec
E1 = -43.73805100262582  Ecoul = 22.27110458517043  Exc = -3.9750753383450435
cycle= 7 E= -12.3878383663256  delta_E= -4.77e-10  |g|= 2.25e-06  |ddm|= 0.000108
    CPU time for cycle= 7    111.23 sec, wall time      0.88 sec
  HOMO = -0.268768289515257  LUMO = -0.0148777491640008
  mo_energy =
[-6.90636257e-01 -5.18470511e-01 -4.49069875e-01 -2.68768290e-01
 -2.68768290e-01 -1.48777492e-02 -1.48777492e-02  2.92793340e-02
  4.27945202e-02  1.04577995e-01  1.68086377e-01  1.97559735e-01
  1.97559735e-01  2.77898788e-01  2.77898788e-01  2.90823509e-01
  3.15617675e-01  4.05212243e-01  4.05212243e-01  4.38016511e-01
  4.38016511e-01  4.93277299e-01  5.28159132e-01  6.39819493e-01
  6.39819493e-01  6.40731209e-01  6.40731280e-01  6.46321795e-01
  7.34340361e-01  9.20685216e-01  9.44195750e-01  9.44195750e-01
  9.47244165e-01  9.47244165e-01  9.57174566e-01  1.11536188e+00
  1.27293260e+00  1.27293260e+00  1.27363448e+00  1.41489696e+00
  1.41489696e+00  1.47283447e+00  1.49599935e+00  1.49599939e+00
  1.63386057e+00  1.63386057e+00  1.72493975e+00  1.72493975e+00
  1.74853432e+00  1.75354736e+00  1.75354742e+00  1.77316966e+00
  1.77316966e+00  1.82234019e+00  1.82234019e+00  1.84942385e+00
  1.84942414e+00  1.96950270e+00  2.02939392e+00  2.02939392e+00
  2.07602797e+00  2.07602806e+00  2.11701801e+00  2.17058460e+00
  2.31598758e+00  2.41612832e+00  2.41612832e+00  2.44448937e+00
  2.44448965e+00  2.61983809e+00  2.73478185e+00  2.73478185e+00
  2.93959650e+00  2.93959684e+00  3.08402110e+00  3.33897367e+00
  3.41141365e+00  3.41141365e+00  3.57541336e+00  3.65663023e+00
  3.65663023e+00  3.97528984e+00  3.97528984e+00  4.06491297e+00
  4.21100599e+00  4.25725383e+00  4.41259209e+00  4.41259209e+00
  4.66553267e+00  4.66553929e+00  4.87107917e+00  4.87107954e+00
  5.03678668e+00  5.03679434e+00  5.10920306e+00  5.11455673e+00
  5.11455673e+00  5.25884398e+00  5.25884398e+00  5.31840662e+00
  5.31840662e+00  5.34754775e+00  5.34754775e+00  5.36136638e+00
  5.36136806e+00  5.36248808e+00  5.36249098e+00  5.50889284e+00
  5.50889284e+00  5.54438906e+00  5.54438906e+00  5.55982353e+00
  5.55982353e+00  5.62986133e+00  5.87822145e+00  5.87822145e+00
  5.89412155e+00  6.05951668e+00  6.05951668e+00  6.25164085e+00
  6.25164600e+00  6.39876513e+00  6.39876940e+00  6.45782963e+00
  6.45782963e+00  6.67283426e+00  6.75553399e+00  6.78292523e+00
  6.78292554e+00  7.17448891e+00  7.17448891e+00  7.24249773e+00
  7.35092971e+00  7.45725347e+00  7.55474049e+00  7.55474049e+00
  7.61445910e+00  7.61445910e+00  7.64893469e+00  7.64894224e+00
  7.78789835e+00  7.86368537e+00  7.86369126e+00  7.88249163e+00
  7.88249163e+00  7.97554866e+00  7.97554880e+00  8.29373356e+00
  8.73784764e+00  8.73784764e+00  8.87865570e+00  8.93986972e+00
  8.93987207e+00  9.06353206e+00  9.28622096e+00  9.28622096e+00
  9.87694924e+00  9.87694924e+00  1.05301341e+01  1.12997001e+01
  1.12997001e+01  1.14302019e+01  1.16021375e+01  1.16021375e+01
  1.24097949e+01  1.36655084e+01  1.92035070e+01  2.03996919e+01]
nelec by numeric integration = 9.999999932696033
    CPU time for vxc     32.75 sec, wall time      0.26 sec
    CPU time for df-vj      7.92 sec, wall time      0.06 sec
E1 = -43.73804926308216  Ecoul = 22.2711020331104  Exc = -3.975074525830173
Extra cycle  E= -12.3878383663271  delta_E= -1.51e-12  |g|= 7.53e-07  |ddm|= 9.96e-06
    CPU time for scf_cycle    941.10 sec, wall time      7.59 sec
    CPU time for SCF    941.11 sec, wall time      7.59 sec
converged SCF energy = -12.3878383663271
