#INFO: **** input file is /home/nkousuke/lustre/toBeSync/turboRVB/05turbo-genius-development/turbogenius_paper/04data/sanity_checks/02pyscf_prep_LDA_via_trexio/00open_boundary/results/LiF/pyscf-LDA-workflow/run.py ****

from pyscf_wrapper import Pyscf_wrapper

# input variables
pyscf_chkfile="pyscf.chk"
structure_file="LiF.xyz"

# input variables
omp_num_threads=128
charge=0
spin=0
basis="ccecp-ccpvqz"
ecp="ccecp"
scf_method="DFT"
dft_xc="LDA_X,LDA_C_PZ"
solver_newton=False
MP2_flag=False
CCSD_flag=False
pyscf_output="out.pyscf"
twist_average=False
exp_to_discard=0.1
kpt=[0.0, 0.0, 0.0]
kpt_grid=[1, 1, 1]
smearing_method="fermi"
smearing_sigma=0.0

pyscf_calc=Pyscf_wrapper(
                        structure_file=structure_file,
                        chkfile=pyscf_chkfile,
                        )

pyscf_calc.run_pyscf(
                  omp_num_threads=omp_num_threads,
                  charge=charge,
                  spin=spin,
                  basis=basis,
                  ecp=ecp,
                  scf_method=scf_method,
                  dft_xc=dft_xc,
                  solver_newton=solver_newton,
                  MP2_flag=MP2_flag,
                  CCSD_flag=CCSD_flag,
                  pyscf_output=pyscf_output,
                  twist_average=twist_average,
                  exp_to_discard=exp_to_discard,
                  kpt=kpt,
                  kpt_grid=kpt_grid,
                  smearing_method=smearing_method,
                  smearing_sigma=smearing_sigma
                  )
                #INFO: ******************** input file end ********************


System: uname_result(system='Linux', node='spcc-104', release='5.4.0-66-generic', version='#74-Ubuntu SMP Wed Jan 27 22:54:38 UTC 2021', machine='x86_64', processor='x86_64')  Threads 128
Python 3.7.3 (default, Mar 27 2019, 22:11:17) 
[GCC 7.3.0]
numpy 1.21.6  scipy 1.7.3
Date: Wed Dec 28 11:29:44 2022
PySCF version 2.1.1
PySCF path  /home/nkousuke/application/anaconda3/lib/python3.7/site-packages/pyscf

[CONFIG] conf_file /home/nkousuke/.pyscf_conf.py
[INPUT] verbose = 5
[INPUT] max_memory = 505155.31640625 
[INPUT] num. atoms = 2
[INPUT] num. electrons = 8
[INPUT] charge = 0
[INPUT] spin (= nelec alpha-beta = 2S) = 0
[INPUT] symmetry False subgroup None
[INPUT] Mole.unit = A
[INPUT] Symbol           X                Y                Z      unit          X                Y                Z       unit  Magmom
[INPUT]  1 Li     0.000000000000   0.000000000000   1.563900000000 AA    0.000000000000   0.000000000000   2.955342686207 Bohr   0.0
[INPUT]  2 F      0.000000000000   0.000000000000   0.000000000000 AA    0.000000000000   0.000000000000   0.000000000000 Bohr   0.0
[INPUT] ---------------- BASIS SET ---------------- 
[INPUT] l, kappa, [nprim/nctr], expnt,             c_1 c_2 ...
[INPUT] F
[INPUT] 0    0    [10   /1   ]  84.048652         -2.8e-06
                                41.094617         -0.0003543
                                20.092738         0.0184088
                                9.824112          -0.1277661
                                4.803386          -0.0702872
                                2.34856           0.1571604
                                1.148301          0.3769012
                                0.561449          0.4095165
                                0.274514          0.1970893
                                0.13422           0.0243482
[INPUT] 0    0    [1    /1   ]  1.705653             1
[INPUT] 0    0    [1    /1   ]  1.048013             1
[INPUT] 0    0    [1    /1   ]  0.294345             1
[INPUT] 1    0    [10   /1   ]  31.642619         0.0029673
                                16.243233         0.0298049
                                8.338204          0.0669489
                                4.280284          0.133779
                                2.197215          0.2148312
                                1.127906          0.2664862
                                0.578992          0.2618954
                                0.297216          0.1920217
                                0.152571          0.0828465
                                0.07832           0.0133046
[INPUT] 1    0    [1    /1   ]  1.650688             1
[INPUT] 1    0    [1    /1   ]  0.64724              1
[INPUT] 1    0    [1    /1   ]  0.205806             1
[INPUT] 2    0    [1    /1   ]  4.998085             1
[INPUT] 2    0    [1    /1   ]  1.724392             1
[INPUT] 2    0    [1    /1   ]  0.587354             1
[INPUT] 3    0    [1    /1   ]  3.694285             1
[INPUT] 3    0    [1    /1   ]  1.178147             1
[INPUT] 4    0    [1    /1   ]  2.406583             1
[INPUT] Li
[INPUT] 0    0    [10   /1   ]  16.001258         4.34e-05
                                7.583113          -0.0007531
                                3.593693          -0.0002519
                                1.703077          0.0169674
                                0.807101          -0.0909921
                                0.382491          -0.0893155
                                0.181265          0.0294155
                                0.085903          0.364402
                                0.04071           0.5504973
                                0.019293          0.1744412
[INPUT] 0    0    [1    /1   ]  0.519693             1
[INPUT] 0    0    [1    /1   ]  0.10977              1
[INPUT] 0    0    [1    /1   ]  0.024834             1
[INPUT] 1    0    [10   /1   ]  7.004881          -0.0005306
                                3.451199          0.0012949
                                1.700353          0.0070115
                                0.837738          0.0171604
                                0.412741          0.036724
                                0.203351          0.0965042
                                0.100188          0.2211013
                                0.049361          0.3835358
                                0.02432           0.3350564
                                0.011982          0.0781453
[INPUT] 1    0    [1    /1   ]  0.207505             1
[INPUT] 1    0    [1    /1   ]  0.115823             1
[INPUT] 1    0    [1    /1   ]  0.070662             1
[INPUT] 2    0    [1    /1   ]  0.21499              1
[INPUT] 2    0    [1    /1   ]  0.089353             1
[INPUT] 2    0    [1    /1   ]  0.029817             1
[INPUT] 3    0    [1    /1   ]  0.240323             1
[INPUT] 3    0    [1    /1   ]  0.09993              1
[INPUT] 4    0    [1    /1   ]  0.19957              1

nuclear repulsion = 2.36859164680606
number of shells = 28
number of NR pGTOs = 180
number of NR cGTOs = 108
basis = ccecp-ccpvqz
ecp = ccecp
CPU time:         1.01


******** <class 'pyscf.df.df_jk.density_fit.<locals>.DensityFitting'> ********
method = DensityFitting-RKS
initial guess = minao
damping factor = 0
level_shift factor = 0
DIIS = <class 'pyscf.scf.diis.CDIIS'>
diis_start_cycle = 1
diis_space = 8
SCF conv_tol = 1e-09
SCF conv_tol_grad = None
SCF max_cycles = 200
direct_scf = True
direct_scf_tol = 1e-13
chkfile to save SCF result = pyscf.chk
max_memory 505155 MB (current use 102 MB)
XC library pyscf.dft.libxc version 5.2.0
    S. Lehtola, C. Steigemann, M. J. Oliveira, and M. A. Marques, SoftwareX 7, 1 (2018)
XC functionals = LDA_X,LDA_C_PZ
    P. A. M. Dirac, Math. Proc. Cambridge Philos. Soc. 26, 376 (1930)
    F. Bloch, Z. Phys. 57, 545 (1929)
    J. P. Perdew and A. Zunger, Phys. Rev. B 23, 5048 (1981)
radial grids: 
    Treutler-Ahlrichs [JCP 102, 346 (1995); DOI:10.1063/1.469408] (M4) radial grids
    
becke partition: Becke, JCP 88, 2547 (1988); DOI:10.1063/1.454033
pruning grids: <function nwchem_prune at 0x1517658b8158>
grids dens level: 3
symmetrized grids: False
atomic radii adjust function: <function treutler_atomic_radii_adjust at 0x1517658b8048>
small_rho_cutoff = 1e-07
Set gradient conv threshold to 3.16228e-05
atom Li rad-grids = 75, ang-grids = [ 50  50  50  50  50  50  50  50  50  50  50  50  50  50  50  50  50  50
  50  50  50  50  50  50  50  50  50  50  50  86  86  86  86  86  86  86
  86  86  86  86  86 266 266 266 266 266 266 266 266 266 302 302 302 302
 302 302 302 302 302 302 302 302 302 302 302 302 302 302 302 302 266 266
 266 266 266]
atom F rad-grids = 75, ang-grids = [ 50  50  50  50  50  50  50  50  50  50  50  50  50  50  50  50  50  50
  50  50  50  86  86  86  86  86  86  86  86  86 266 266 266 266 266 266
 302 302 302 302 302 302 302 302 302 302 302 302 302 302 302 302 302 302
 266 266 266 266 266 266 266 266 266 266 266 266 266 266 266 266 266 266
 266 266 266]
tot_boxes 891, boxes in each direction [7 7 9]
Padding 0 grids
tot grids = 26688
Drop grids 841
prune_by_density_: 1 padding grids
    CPU time for setting up grids     13.25 sec, wall time      0.15 sec
nelec by numeric integration = 7.999980637929134
    CPU time for vxc     14.46 sec, wall time      0.13 sec
Even tempered Gaussians are generated as DF auxbasis for  F Li
  ETB auxbasis for F  [[0, [34.36032, 1]], [0, [17.18016, 1]], [0, [8.59008, 1]], [0, [4.29504, 1]], [0, [2.14752, 1]], [0, [1.07376, 1]], [0, [0.53688, 1]], [0, [0.26844, 1]], [1, [26.24731733290852, 1]], [1, [13.12365866645426, 1]], [1, [6.56182933322713, 1]], [1, [3.280914666613565, 1]], [1, [1.6404573333067825, 1]], [1, [0.8202286666533912, 1]], [1, [0.4101143333266956, 1]], [1, [0.2050571666633478, 1]], [2, [40.09984, 1]], [2, [20.04992, 1]], [2, [10.02496, 1]], [2, [5.01248, 1]], [2, [2.50624, 1]], [2, [1.25312, 1]], [2, [0.62656, 1]], [2, [0.31328, 1]], [2, [0.15664, 1]], [3, [13.72670431629093, 1]], [3, [6.863352158145465, 1]], [3, [3.4316760790727323, 1]], [3, [1.7158380395363662, 1]], [3, [0.8579190197681831, 1]], [3, [0.42895950988409154, 1]], [4, [9.397664, 1]], [4, [4.698832, 1]], [4, [2.349416, 1]], [4, [1.174708, 1]]]
  ETB auxbasis for Li  [[0, [2.469504, 1]], [0, [1.234752, 1]], [0, [0.617376, 1]], [0, [0.308688, 1]], [0, [0.154344, 1]], [0, [0.077172, 1]], [0, [0.038586, 1]], [1, [3.892283857471857, 1]], [1, [1.9461419287359285, 1]], [1, [0.9730709643679643, 1]], [1, [0.4865354821839821, 1]], [1, [0.24326774109199106, 1]], [1, [0.12163387054599553, 1]], [1, [0.060816935272997766, 1]], [1, [0.030408467636498883, 1]], [2, [6.134784, 1]], [2, [3.067392, 1]], [2, [1.533696, 1]], [2, [0.766848, 1]], [2, [0.383424, 1]], [2, [0.191712, 1]], [2, [0.095856, 1]], [2, [0.047928, 1]], [2, [0.023964, 1]]]
num shells = 59, num cGTOs = 231
    CPU time for df-vj     10.05 sec, wall time      0.08 sec
E1 = -45.309447307355676  Ecoul = 23.2203287943077  Exc = -4.537409950486295
init E= -24.2579368167282
cond(S) = 7080.244930395669
    CPU time for initialize scf     59.42 sec, wall time      0.72 sec
  HOMO = -0.466230770642315  LUMO = -0.0897824002207964
  mo_energy =
[-1.15976812e+00 -4.82565698e-01 -4.66230771e-01 -4.66230771e-01
 -8.97824002e-02 -3.02357530e-02 -3.02357530e-02 -1.22129130e-02
  3.79873349e-02  4.07437106e-02  4.07437116e-02  4.29707267e-02
  4.29707267e-02  4.52672015e-02  7.30160478e-02  7.30160478e-02
  1.01854575e-01  2.06100978e-01  2.06100981e-01  2.24103954e-01
  2.24103954e-01  2.39356636e-01  2.54361042e-01  2.54361042e-01
  2.74813521e-01  2.82619699e-01  2.82619713e-01  2.93741543e-01
  2.93741543e-01  2.98702226e-01  2.98702226e-01  3.01409566e-01
  3.58013264e-01  5.99139580e-01  6.66331579e-01  6.66331579e-01
  7.07113412e-01  7.10141845e-01  7.10141992e-01  7.11362234e-01
  7.11362234e-01  7.22943353e-01  7.22943353e-01  8.29078731e-01
  8.29078887e-01  8.47289434e-01  8.84133842e-01  8.84133842e-01
  8.98902274e-01  8.98902297e-01  9.86186209e-01  9.86186209e-01
  9.98707501e-01  1.00277451e+00  1.00277545e+00  1.03556303e+00
  1.03556303e+00  1.12265764e+00  1.12265764e+00  1.40774330e+00
  1.42261404e+00  1.63895145e+00  1.63899541e+00  1.77146725e+00
  2.02334342e+00  2.02334342e+00  2.57934933e+00  2.85083764e+00
  2.85083764e+00  3.32711259e+00  4.08650423e+00  4.08650423e+00
  4.10446063e+00  4.10446063e+00  4.14138570e+00  4.14892714e+00
  4.14922096e+00  4.98012396e+00  4.98039738e+00  5.07599961e+00
  5.36353766e+00  5.36353766e+00  5.97661423e+00  9.99573100e+00
  9.99573100e+00  1.06039919e+01  1.12569882e+01  1.12569882e+01
  1.12622982e+01  1.12673261e+01  1.12688355e+01  1.12735545e+01
  1.12735545e+01  1.12794488e+01  1.12826284e+01  1.47294853e+01
  1.47294853e+01  1.47389042e+01  1.47389042e+01  1.47557604e+01
  1.47614529e+01  1.47685374e+01  1.53840736e+01  1.53841497e+01
  1.54890700e+01  1.56767451e+01  1.56767451e+01  3.26952609e+01]
nelec by numeric integration = 7.99998052031274
    CPU time for vxc     13.40 sec, wall time      0.11 sec
    CPU time for df-vj      4.84 sec, wall time      0.04 sec
E1 = -48.94246067725463  Ecoul = 27.336323796620547  Exc = -5.1463902867454765
cycle= 1 E= -24.3839355205735  delta_E= -0.126  |g|= 0.759  |ddm|= 1.64
    CPU time for cycle= 1     20.32 sec, wall time      0.18 sec
  HOMO = -0.0282231203736408  LUMO = -0.0100760952082458
  mo_energy =
[-6.42611560e-01 -3.47393538e-02 -2.82231204e-02 -2.82231204e-02
 -1.00760952e-02  3.63447132e-02  3.63447132e-02  4.40011444e-02
  7.47714888e-02  7.84400699e-02  7.84410356e-02  9.54586166e-02
  9.54586166e-02  1.03708109e-01  1.35289144e-01  1.35289144e-01
  1.72675858e-01  2.72687908e-01  2.72688695e-01  3.03262753e-01
  3.03262753e-01  3.11466612e-01  3.27259885e-01  3.28585532e-01
  3.28585532e-01  3.57634605e-01  3.57639760e-01  3.59174630e-01
  3.59174630e-01  4.03504757e-01  4.03504757e-01  4.19319490e-01
  4.85658310e-01  7.49095065e-01  7.79595807e-01  7.79595807e-01
  7.98711839e-01  7.98712290e-01  8.08592929e-01  8.08592929e-01
  8.27866286e-01  9.09348085e-01  9.09348085e-01  9.47323052e-01
  9.47335505e-01  9.73141022e-01  9.73141022e-01  9.74193189e-01
  9.77443230e-01  9.77443364e-01  1.05806723e+00  1.05806723e+00
  1.08323639e+00  1.09842992e+00  1.09843016e+00  1.11866373e+00
  1.11866373e+00  1.28626609e+00  1.28626609e+00  1.60513439e+00
  1.68900654e+00  1.91798019e+00  1.91803281e+00  2.04100482e+00
  2.31932781e+00  2.31932781e+00  2.72870216e+00  3.25926134e+00
  3.25926134e+00  3.72165999e+00  4.47678651e+00  4.47678651e+00
  4.48745642e+00  4.48745642e+00  4.52714707e+00  4.53796329e+00
  4.53822831e+00  5.46728447e+00  5.46750424e+00  5.56266739e+00
  5.84412519e+00  5.84412519e+00  6.49142187e+00  1.06195922e+01
  1.06195922e+01  1.12279716e+01  1.17591676e+01  1.17591676e+01
  1.17651905e+01  1.17687515e+01  1.17703010e+01  1.17735054e+01
  1.17735054e+01  1.17773165e+01  1.17806578e+01  1.53449524e+01
  1.53449524e+01  1.53497042e+01  1.53497042e+01  1.53715065e+01
  1.53757417e+01  1.53831250e+01  1.60442371e+01  1.60443277e+01
  1.61519372e+01  1.63351731e+01  1.63351731e+01  3.34824304e+01]
nelec by numeric integration = 7.999994856286112
    CPU time for vxc     13.20 sec, wall time      0.11 sec
    CPU time for df-vj      4.84 sec, wall time      0.04 sec
E1 = -32.24766676216689  Ecoul = 12.083317453424495  Exc = -2.6413794918161835
cycle= 2 E= -20.4371371537525  delta_E= 3.95  |g|= 3.89  |ddm|=  3.8
    CPU time for cycle= 2     20.23 sec, wall time      0.17 sec
  HOMO = -0.206418842948998  LUMO = -0.0355788788603425
  mo_energy =
[-8.77717295e-01 -2.18460341e-01 -2.06418843e-01 -2.06418843e-01
 -3.55788789e-02  1.85958161e-02  1.85958161e-02  3.09777067e-02
  7.00589191e-02  7.18335127e-02  7.18343893e-02  7.76073186e-02
  7.76073186e-02  8.09365825e-02  1.13699045e-01  1.13699045e-01
  1.49716596e-01  2.59450108e-01  2.59450214e-01  2.84500097e-01
  2.84500097e-01  2.97988656e-01  3.08726169e-01  3.08726169e-01
  3.19925953e-01  3.39138700e-01  3.39143604e-01  3.48005771e-01
  3.48005771e-01  3.63274063e-01  3.63274063e-01  3.71736882e-01
  4.36142648e-01  6.89094075e-01  7.45117566e-01  7.45117566e-01
  7.76016155e-01  7.76016604e-01  7.84049488e-01  7.85309026e-01
  7.85309026e-01  8.19116975e-01  8.19116975e-01  9.11451071e-01
  9.11462034e-01  9.31245628e-01  9.51162799e-01  9.51162799e-01
  9.62704406e-01  9.62704528e-01  1.04882169e+00  1.04882169e+00
  1.06495357e+00  1.07369589e+00  1.07369596e+00  1.10040534e+00
  1.10040534e+00  1.22226479e+00  1.22226479e+00  1.52435069e+00
  1.57049722e+00  1.79288727e+00  1.79293267e+00  1.91561085e+00
  2.18397120e+00  2.18397120e+00  2.66881649e+00  3.07013511e+00
  3.07013511e+00  3.54148014e+00  4.30004396e+00  4.30004396e+00
  4.31375733e+00  4.31375733e+00  4.35233031e+00  4.36215093e+00
  4.36241635e+00  5.23997451e+00  5.24019992e+00  5.33496067e+00
  5.61874998e+00  5.61874998e+00  6.24887046e+00  1.03270942e+01
  1.03270942e+01  1.09379447e+01  1.15266249e+01  1.15266249e+01
  1.15322254e+01  1.15367471e+01  1.15381867e+01  1.15425616e+01
  1.15425616e+01  1.15480459e+01  1.15513266e+01  1.50578011e+01
  1.50578011e+01  1.50639947e+01  1.50639947e+01  1.50836215e+01
  1.50889217e+01  1.50961115e+01  1.57332134e+01  1.57332882e+01
  1.58406216e+01  1.60251235e+01  1.60251235e+01  3.31120675e+01]
nelec by numeric integration = 7.999983270303918
    CPU time for vxc     14.70 sec, wall time      0.13 sec
    CPU time for df-vj      5.01 sec, wall time      0.04 sec
E1 = -46.335413616273094  Ecoul = 24.09859262743458  Exc = -4.5881520220499
cycle= 3 E= -24.4563813640824  delta_E= -4.02  |g|= 0.498  |ddm|= 3.26
    CPU time for cycle= 3     21.91 sec, wall time      0.19 sec
  HOMO = -0.213327840040932  LUMO = -0.041637912037335
  mo_energy =
[-8.87385894e-01 -2.22131413e-01 -2.13327840e-01 -2.13327840e-01
 -4.16379120e-02  1.46638812e-02  1.46638812e-02  3.17838835e-02
  6.63160301e-02  7.08416763e-02  7.08464207e-02  7.97388311e-02
  7.97388311e-02  8.61548605e-02  1.10664256e-01  1.10664256e-01
  1.50898962e-01  2.57609113e-01  2.57610835e-01  2.81701269e-01
  2.81701269e-01  2.97349655e-01  3.10148782e-01  3.10148782e-01
  3.15010075e-01  3.39900563e-01  3.39902575e-01  3.44642110e-01
  3.44642110e-01  3.63066615e-01  3.63066615e-01  3.76104814e-01
  4.41792947e-01  7.04156227e-01  7.52183496e-01  7.52183496e-01
  7.76667450e-01  7.76668223e-01  7.85536986e-01  7.86019348e-01
  7.86019348e-01  8.30311914e-01  8.30311914e-01  9.16931647e-01
  9.16936473e-01  9.29389894e-01  9.51841118e-01  9.51841118e-01
  9.58752690e-01  9.58752745e-01  1.04251865e+00  1.04251865e+00
  1.06171039e+00  1.07382556e+00  1.07382585e+00  1.09768870e+00
  1.09768870e+00  1.22857654e+00  1.22857654e+00  1.52920207e+00
  1.58943250e+00  1.81467531e+00  1.81472067e+00  1.93133781e+00
  2.20552363e+00  2.20552363e+00  2.67970211e+00  3.06670122e+00
  3.06670122e+00  3.53980998e+00  4.32480645e+00  4.32480645e+00
  4.33627784e+00  4.33627784e+00  4.37684992e+00  4.38500017e+00
  4.38526086e+00  5.23327805e+00  5.23349640e+00  5.33090766e+00
  5.61543639e+00  5.61543639e+00  6.23232417e+00  1.02798565e+01
  1.02798565e+01  1.08908421e+01  1.15329285e+01  1.15329285e+01
  1.15385924e+01  1.15420374e+01  1.15434659e+01  1.15460853e+01
  1.15460853e+01  1.15487432e+01  1.15521367e+01  1.50265166e+01
  1.50265166e+01  1.50307894e+01  1.50307894e+01  1.50540179e+01
  1.50568127e+01  1.50640064e+01  1.56815235e+01  1.56815682e+01
  1.57909864e+01  1.59761931e+01  1.59761931e+01  3.30182258e+01]
nelec by numeric integration = 7.999982089308177
    CPU time for vxc     13.35 sec, wall time      0.11 sec
    CPU time for df-vj      5.08 sec, wall time      0.04 sec
E1 = -47.149350605576096  Ecoul = 25.04806923367113  Exc = -4.755317059511125
cycle= 4 E= -24.48800678461  delta_E= -0.0316  |g|= 0.0481  |ddm|= 0.373
    CPU time for cycle= 4     20.65 sec, wall time      0.18 sec
  HOMO = -0.222753637015141  LUMO = -0.04488905524469
  mo_energy =
[-8.97748105e-01 -2.31942187e-01 -2.22753637e-01 -2.22753637e-01
 -4.48890552e-02  1.16950046e-02  1.16950046e-02  2.93151907e-02
  6.41850786e-02  6.85817780e-02  6.85917978e-02  7.73925937e-02
  7.73925937e-02  8.35696577e-02  1.07600625e-01  1.07600625e-01
  1.47829701e-01  2.53398087e-01  2.53402772e-01  2.77998318e-01
  2.77998318e-01  2.94144763e-01  3.06303827e-01  3.06303827e-01
  3.12277698e-01  3.35902587e-01  3.35903030e-01  3.40241164e-01
  3.40241164e-01  3.58838036e-01  3.58838036e-01  3.71737205e-01
  4.37329340e-01  6.99026135e-01  7.47934827e-01  7.47934827e-01
  7.71813378e-01  7.71814866e-01  7.81858727e-01  7.81858727e-01
  7.81874893e-01  8.24405005e-01  8.24405005e-01  9.12173595e-01
  9.12174811e-01  9.25103670e-01  9.47061055e-01  9.47061055e-01
  9.53349404e-01  9.53349420e-01  1.03906239e+00  1.03906239e+00
  1.05799867e+00  1.06941182e+00  1.06941219e+00  1.09235614e+00
  1.09235614e+00  1.22329801e+00  1.22329801e+00  1.52414775e+00
  1.58287728e+00  1.80737767e+00  1.80742274e+00  1.92408631e+00
  2.19765841e+00  2.19765841e+00  2.67549325e+00  3.05856434e+00
  3.05856434e+00  3.53209336e+00  4.31605337e+00  4.31605337e+00
  4.32753553e+00  4.32753553e+00  4.36813989e+00  4.37626524e+00
  4.37652771e+00  5.22295781e+00  5.22317766e+00  5.32068417e+00
  5.60519995e+00  5.60519995e+00  6.22238593e+00  1.02695925e+01
  1.02695925e+01  1.08805646e+01  1.15219526e+01  1.15219526e+01
  1.15276292e+01  1.15311055e+01  1.15325465e+01  1.15352124e+01
  1.15352124e+01  1.15379272e+01  1.15412987e+01  1.50149023e+01
  1.50149023e+01  1.50191996e+01  1.50191996e+01  1.50423677e+01
  1.50452246e+01  1.50524143e+01  1.56703629e+01  1.56704123e+01
  1.57797713e+01  1.59650207e+01  1.59650207e+01  3.30077512e+01]
nelec by numeric integration = 7.999982007090841
    CPU time for vxc     13.03 sec, wall time      0.11 sec
    CPU time for df-vj      5.53 sec, wall time      0.04 sec
E1 = -47.23658912546696  Ecoul = 25.152723514831838  Exc = -4.773114707330644
cycle= 5 E= -24.4883886711597  delta_E= -0.000382  |g|= 0.011  |ddm|= 0.0344
    CPU time for cycle= 5     19.98 sec, wall time      0.17 sec
  HOMO = -0.224352939509539  LUMO = -0.0452563964656931
  mo_energy =
[-8.99540079e-01 -2.33588231e-01 -2.24352940e-01 -2.24352940e-01
 -4.52563965e-02  1.13767520e-02  1.13767520e-02  2.90645948e-02
  6.39745962e-02  6.84066074e-02  6.84156418e-02  7.71921245e-02
  7.71921245e-02  8.33853043e-02  1.07229239e-01  1.07229239e-01
  1.47433646e-01  2.52891263e-01  2.52895536e-01  2.77572162e-01
  2.77572162e-01  2.93810525e-01  3.05780171e-01  3.05780171e-01
  3.11939347e-01  3.35466527e-01  3.35466688e-01  3.39754101e-01
  3.39754101e-01  3.58331267e-01  3.58331267e-01  3.71240580e-01
  4.36627790e-01  6.98469287e-01  7.47214342e-01  7.47214342e-01
  7.71045518e-01  7.71046876e-01  7.81255084e-01  7.81255084e-01
  7.81328248e-01  8.23679885e-01  8.23679885e-01  9.11524189e-01
  9.11524757e-01  9.24360332e-01  9.46423026e-01  9.46423026e-01
  9.52632067e-01  9.52632075e-01  1.03866687e+00  1.03866687e+00
  1.05758479e+00  1.06876502e+00  1.06876540e+00  1.09155980e+00
  1.09155980e+00  1.22243953e+00  1.22243953e+00  1.52304243e+00
  1.58192770e+00  1.80642478e+00  1.80646991e+00  1.92331283e+00
  2.19667445e+00  2.19667445e+00  2.67468664e+00  3.05714014e+00
  3.05714014e+00  3.53056458e+00  4.31467102e+00  4.31467102e+00
  4.32631994e+00  4.32631994e+00  4.36675982e+00  4.37492005e+00
  4.37518308e+00  5.22139672e+00  5.22161716e+00  5.31906588e+00
  5.60362032e+00  5.60362032e+00  6.22074737e+00  1.02675135e+01
  1.02675135e+01  1.08784220e+01  1.15202633e+01  1.15202633e+01
  1.15259308e+01  1.15294314e+01  1.15308734e+01  1.15335709e+01
  1.15335709e+01  1.15363308e+01  1.15396991e+01  1.50128103e+01
  1.50128103e+01  1.50171598e+01  1.50171598e+01  1.50402463e+01
  1.50431312e+01  1.50503180e+01  1.56682214e+01  1.56682710e+01
  1.57775789e+01  1.59628638e+01  1.59628638e+01  3.30051508e+01]
nelec by numeric integration = 7.99998198785799
    CPU time for vxc     13.37 sec, wall time      0.11 sec
    CPU time for df-vj      5.37 sec, wall time      0.04 sec
E1 = -47.2545426743169  Ecoul = 25.174374600034135  Exc = -4.776829770937457
cycle= 6 E= -24.4884061984142  delta_E= -1.75e-05  |g|= 0.0026  |ddm|= 0.008
    CPU time for cycle= 6     20.12 sec, wall time      0.17 sec
  HOMO = -0.224757717147798  LUMO = -0.0452906671932648
  mo_energy =
[-8.99978765e-01 -2.34014597e-01 -2.24757717e-01 -2.24757717e-01
 -4.52906672e-02  1.13433860e-02  1.13433860e-02  2.90340714e-02
  6.39631953e-02  6.84032743e-02  6.84118694e-02  7.71693839e-02
  7.71693839e-02  8.33569886e-02  1.07178272e-01  1.07178272e-01
  1.47374511e-01  2.52813927e-01  2.52818006e-01  2.77513491e-01
  2.77513491e-01  2.93768557e-01  3.05699163e-01  3.05699163e-01
  3.11905723e-01  3.35402512e-01  3.35402580e-01  3.39686010e-01
  3.39686010e-01  3.58240876e-01  3.58240876e-01  3.71130000e-01
  4.36500396e-01  6.98327907e-01  7.47105213e-01  7.47105213e-01
  7.70916123e-01  7.70917423e-01  7.81159001e-01  7.81159001e-01
  7.81234459e-01  8.23490213e-01  8.23490213e-01  9.11415838e-01
  9.11416192e-01  9.24241889e-01  9.46318751e-01  9.46318751e-01
  9.52506577e-01  9.52506584e-01  1.03862730e+00  1.03862730e+00
  1.05752497e+00  1.06867053e+00  1.06867092e+00  1.09141877e+00
  1.09141877e+00  1.22227880e+00  1.22227880e+00  1.52286522e+00
  1.58171188e+00  1.80619491e+00  1.80624006e+00  1.92306463e+00
  2.19642030e+00  2.19642030e+00  2.67454947e+00  3.05679154e+00
  3.05679154e+00  3.53023956e+00  4.31438107e+00  4.31438107e+00
  4.32603497e+00  4.32603497e+00  4.36646950e+00  4.37463105e+00
  4.37489414e+00  5.22098019e+00  5.22120068e+00  5.31864548e+00
  5.60320181e+00  5.60320181e+00  6.22028521e+00  1.02669423e+01
  1.02669423e+01  1.08778607e+01  1.15198549e+01  1.15198549e+01
  1.15255216e+01  1.15290253e+01  1.15304673e+01  1.15331686e+01
  1.15331686e+01  1.15359340e+01  1.15393020e+01  1.50122743e+01
  1.50122743e+01  1.50166247e+01  1.50166247e+01  1.50397069e+01
  1.50425962e+01  1.50497829e+01  1.56676107e+01  1.56676603e+01
  1.57769676e+01  1.59622530e+01  1.59622530e+01  3.30043934e+01]
nelec by numeric integration = 7.999981980466875
    CPU time for vxc     13.38 sec, wall time      0.11 sec
    CPU time for df-vj      5.34 sec, wall time      0.04 sec
E1 = -47.259979621250515  Ecoul = 25.180938089337037  Exc = -4.777957330410922
cycle= 7 E= -24.4884072155183  delta_E= -1.02e-06  |g|= 3.33e-05  |ddm|= 0.00217
    CPU time for cycle= 7     20.13 sec, wall time      0.17 sec
  HOMO = -0.22476344219681  LUMO = -0.0452797925712207
  mo_energy =
[-8.99985136e-01 -2.34019299e-01 -2.24763442e-01 -2.24763442e-01
 -4.52797926e-02  1.13524268e-02  1.13524268e-02  2.90388479e-02
  6.39706120e-02  6.84112202e-02  6.84197608e-02  7.71740572e-02
  7.71740572e-02  8.33606797e-02  1.07185167e-01  1.07185167e-01
  1.47379050e-01  2.52822174e-01  2.52826227e-01  2.77521971e-01
  2.77521971e-01  2.93776632e-01  3.05705685e-01  3.05705685e-01
  3.11914301e-01  3.35410220e-01  3.35410282e-01  3.39696290e-01
  3.39696290e-01  3.58246797e-01  3.58246797e-01  3.71132640e-01
  4.36502900e-01  6.98326286e-01  7.47111507e-01  7.47111507e-01
  7.70922685e-01  7.70923978e-01  7.81166058e-01  7.81166058e-01
  7.81239697e-01  8.23486724e-01  8.23486724e-01  9.11421972e-01
  9.11422311e-01  9.24247666e-01  9.46326351e-01  9.46326351e-01
  9.52514796e-01  9.52514802e-01  1.03863829e+00  1.03863829e+00
  1.05753342e+00  1.06867915e+00  1.06867954e+00  1.09142568e+00
  1.09142568e+00  1.22228288e+00  1.22228288e+00  1.52286969e+00
  1.58170938e+00  1.80619013e+00  1.80623528e+00  1.92305963e+00
  2.19641410e+00  2.19641410e+00  2.67455415e+00  3.05678837e+00
  3.05678837e+00  3.53023812e+00  4.31437558e+00  4.31437558e+00
  4.32602828e+00  4.32602828e+00  4.36646447e+00  4.37462513e+00
  4.37488821e+00  5.22097293e+00  5.22119341e+00  5.31863947e+00
  5.60319532e+00  5.60319532e+00  6.22028014e+00  1.02669387e+01
  1.02669387e+01  1.08778588e+01  1.15198475e+01  1.15198475e+01
  1.15255143e+01  1.15290178e+01  1.15304596e+01  1.15331607e+01
  1.15331607e+01  1.15359257e+01  1.15392937e+01  1.50122668e+01
  1.50122668e+01  1.50166172e+01  1.50166172e+01  1.50396996e+01
  1.50425885e+01  1.50497751e+01  1.56676065e+01  1.56676562e+01
  1.57769645e+01  1.59622499e+01  1.59622499e+01  3.30043939e+01]
nelec by numeric integration = 7.999981980636565
    CPU time for vxc     13.05 sec, wall time      0.11 sec
    CPU time for df-vj      4.70 sec, wall time      0.04 sec
E1 = -47.26004162860299  Ecoul = 25.18101187686259  Exc = -4.777969110795604
cycle= 8 E= -24.4884072157299  delta_E= -2.12e-10  |g|= 1.67e-05  |ddm|= 7.15e-05
    CPU time for cycle= 8     19.85 sec, wall time      0.17 sec
  HOMO = -0.224757054968884  LUMO = -0.0452779105436224
  mo_energy =
[-8.99978186e-01 -2.34012861e-01 -2.24757055e-01 -2.24757055e-01
 -4.52779105e-02  1.13542091e-02  1.13542091e-02  2.90398225e-02
  6.39716499e-02  6.84124828e-02  6.84210179e-02  7.71750927e-02
  7.71750927e-02  8.33617632e-02  1.07186702e-01  1.07186702e-01
  1.47380307e-01  2.52824300e-01  2.52828351e-01  2.77523942e-01
  2.77523942e-01  2.93778341e-01  3.05707323e-01  3.05707323e-01
  3.11915608e-01  3.35412219e-01  3.35412280e-01  3.39698746e-01
  3.39698746e-01  3.58248994e-01  3.58248994e-01  3.71134704e-01
  4.36504685e-01  6.98328400e-01  7.47113124e-01  7.47113124e-01
  7.70924616e-01  7.70925908e-01  7.81167805e-01  7.81167805e-01
  7.81241301e-01  8.23489537e-01  8.23489537e-01  9.11424122e-01
  9.11424462e-01  9.24249575e-01  9.46328579e-01  9.46328579e-01
  9.52517405e-01  9.52517412e-01  1.03864014e+00  1.03864014e+00
  1.05753528e+00  1.06868116e+00  1.06868155e+00  1.09142794e+00
  1.09142794e+00  1.22228522e+00  1.22228522e+00  1.52287192e+00
  1.58171229e+00  1.80619331e+00  1.80623846e+00  1.92306327e+00
  2.19641760e+00  2.19641760e+00  2.67455548e+00  3.05679380e+00
  3.05679380e+00  3.53024303e+00  4.31437947e+00  4.31437947e+00
  4.32603238e+00  4.32603238e+00  4.36646831e+00  4.37462914e+00
  4.37489222e+00  5.22097945e+00  5.22119993e+00  5.31864582e+00
  5.60320164e+00  5.60320164e+00  6.22028761e+00  1.02669487e+01
  1.02669487e+01  1.08778686e+01  1.15198535e+01  1.15198535e+01
  1.15255203e+01  1.15290238e+01  1.15304657e+01  1.15331668e+01
  1.15331668e+01  1.15359319e+01  1.15392999e+01  1.50122758e+01
  1.50122758e+01  1.50166262e+01  1.50166262e+01  1.50397085e+01
  1.50425975e+01  1.50497841e+01  1.56676171e+01  1.56676668e+01
  1.57769750e+01  1.59622603e+01  1.59622603e+01  3.30044082e+01]
nelec by numeric integration = 7.999981980738981
    CPU time for vxc     12.91 sec, wall time      0.11 sec
    CPU time for df-vj      5.34 sec, wall time      0.04 sec
E1 = -47.25993392550636  Ecoul = 25.18088178417548  Exc = -4.777946721044034
Extra cycle  E= -24.4884072155689  delta_E= 1.61e-10  |g|= 3.61e-05  |ddm|= 4.49e-05
    CPU time for scf_cycle    242.20 sec, wall time      2.29 sec
    CPU time for SCF    242.20 sec, wall time      2.29 sec
converged SCF energy = -24.4884072155689
