#INFO: **** input file is /home/nkousuke/lustre/toBeSync/turboRVB/05turbo-genius-development/turbogenius_paper/04data/sanity_checks/03pyscf_HF_turbo_VMC_via_trexio/00open_boundary/results/Cl/pyscf-HF-workflow/run.py ****

from pyscf_wrapper import Pyscf_wrapper

# input variables
pyscf_chkfile="pyscf.chk"
structure_file="Cl.xyz"

# input variables
omp_num_threads=128
charge=0
spin=1
basis="ccecp-ccpvqz"
ecp="ccecp"
scf_method="HF"
dft_xc="NA"
solver_newton=False
MP2_flag=False
CCSD_flag=False
pyscf_output="out.pyscf"
twist_average=False
exp_to_discard=0.0
kpt=[0.0, 0.0, 0.0]
kpt_grid=[1, 1, 1]
smearing_method="fermi"
smearing_sigma=0.0

pyscf_calc=Pyscf_wrapper(
                        structure_file=structure_file,
                        chkfile=pyscf_chkfile,
                        )

pyscf_calc.run_pyscf(
                  omp_num_threads=omp_num_threads,
                  charge=charge,
                  spin=spin,
                  basis=basis,
                  ecp=ecp,
                  scf_method=scf_method,
                  dft_xc=dft_xc,
                  solver_newton=solver_newton,
                  MP2_flag=MP2_flag,
                  CCSD_flag=CCSD_flag,
                  pyscf_output=pyscf_output,
                  twist_average=twist_average,
                  exp_to_discard=exp_to_discard,
                  kpt=kpt,
                  kpt_grid=kpt_grid,
                  smearing_method=smearing_method,
                  smearing_sigma=smearing_sigma
                  )
                #INFO: ******************** input file end ********************


System: uname_result(system='Linux', node='spcc-105', release='5.4.0-66-generic', version='#74-Ubuntu SMP Wed Jan 27 22:54:38 UTC 2021', machine='x86_64', processor='x86_64')  Threads 128
Python 3.7.3 (default, Mar 27 2019, 22:11:17) 
[GCC 7.3.0]
numpy 1.20.1  scipy 1.7.3
Date: Mon Dec 19 18:12:12 2022
PySCF version 2.0.1
PySCF path  /home/nkousuke/application/anaconda3/lib/python3.7/site-packages/pyscf

[CONFIG] conf_file /home/nkousuke/.pyscf_conf.py
[INPUT] verbose = 5
[INPUT] max_memory = 507616.1015625 
[INPUT] num. atoms = 1
[INPUT] num. electrons = 7
[INPUT] charge = 0
[INPUT] spin (= nelec alpha-beta = 2S) = 1
[INPUT] symmetry False subgroup None
[INPUT] Mole.unit = A
[INPUT]  1 Cl     0.000000000000   0.000000000000   0.000000000000 AA    0.000000000000   0.000000000000   0.000000000000 Bohr
[INPUT] ---------------- BASIS SET ---------------- 
[INPUT] l, kappa, [nprim/nctr], expnt,             c_1 c_2 ...
[INPUT] Cl
[INPUT] 0    0    [10   /1   ]  15.583847         0.002501
                                8.858485          -0.010046
                                5.035519          0.08581
                                2.862391          -0.290136
                                1.627098          -0.140314
                                0.924908          0.146839
                                0.525755          0.392484
                                0.29886           0.425061
                                0.169884          0.227195
                                0.096569          0.059828
[INPUT] 0    0    [1    /1   ]  1.038268             1
[INPUT] 0    0    [1    /1   ]  0.418863             1
[INPUT] 0    0    [1    /1   ]  0.16898              1
[INPUT] 1    0    [10   /1   ]  7.682894          -0.004609
                                4.507558          -0.001798
                                2.644587          -0.068614
                                1.551581          0.062352
                                0.910313          0.166337
                                0.534081          0.282292
                                0.313346          0.275967
                                0.18384           0.241328
                                0.107859          0.110223
                                0.063281          0.040289
[INPUT] 1    0    [1    /1   ]  2.626653             1
[INPUT] 1    0    [1    /1   ]  1.069041             1
[INPUT] 1    0    [1    /1   ]  0.435097             1
[INPUT] 2    0    [1    /1   ]  2.102692             1
[INPUT] 2    0    [1    /1   ]  0.763188             1
[INPUT] 2    0    [1    /1   ]  0.277005             1
[INPUT] 3    0    [1    /1   ]  1.139446             1
[INPUT] 3    0    [1    /1   ]  0.434852             1
[INPUT] 4    0    [1    /1   ]  0.844301             1

nuclear repulsion = 0
number of shells = 14
number of NR pGTOs = 90
number of NR cGTOs = 54
basis = ccecp-ccpvqz
ecp = ccecp
CPU time:         5.00


******** <class 'pyscf.scf.rohf.ROHF'> ********
method = ROHF-RHF
initial guess = minao
damping factor = 0
level_shift factor = 0
DIIS = <class 'pyscf.scf.diis.CDIIS'>
diis_start_cycle = 1
diis_space = 8
SCF conv_tol = 1e-09
SCF conv_tol_grad = None
SCF max_cycles = 200
direct_scf = True
direct_scf_tol = 1e-13
chkfile to save SCF result = pyscf.chk
max_memory 507616 MB (current use 106 MB)
num. doubly occ = 3  num. singly occ = 1
Set gradient conv threshold to 3.16228e-05
E1 = -24.688109638118995  Ecoul = 10.194993748127057
init E= -14.4931158899919
cond(S) = 886.7630100138288
    CPU time for initialize scf     86.65 sec, wall time      0.83 sec
  HOMO = -0.427916125006595  LUMO = 0.517834667782737
                  Roothaan           | alpha              | beta
  Highest 2-occ = -0.427916125006597 | -0.427916125006598 | -0.427916125006598
  Lowest 0-occ =   0.517834667782737 |  0.517834667782734 |  0.517834667782734
  1-occ =         -0.427916125006595 | -0.427916125006597 | -0.427916125006597
  Roothaan mo_energy =
[-1.07989768 -0.42791613 -0.42791613 -0.42791613  0.51783467  0.5300763
  0.5300763   0.5300763   0.5300763   0.5300763   0.56450641  0.56450641
  0.56450641  1.56679994  1.56679994  1.56679994  1.56679994  1.56679994
  1.56679994  1.56679994  1.6869033   1.6869033   1.6869033   1.6869033
  1.6869033   2.71638937  2.71638937  2.71638937  2.91558399  3.96913731
  3.96913731  3.96913731  3.96913731  3.96913731  3.96913731  3.96913731
  3.96913731  3.96913731  4.38464511  4.38464511  4.38464511  4.38464511
  4.38464511  4.38464511  4.38464511  5.0640389   5.0640389   5.0640389
  5.0640389   5.0640389  11.29844666 11.29844666 11.29844666 17.2934393 ]
E1 = -24.594757338838953  Ecoul = 9.906701929941075
cycle= 1 E= -14.6880554088979  delta_E= -0.195  |g|= 0.0868  |ddm|= 1.03
    CPU time for cycle= 1     21.99 sec, wall time      0.17 sec
  HOMO = -0.317196727893382  LUMO = 0.506560469784653
                  Roothaan           | alpha              | beta
  Highest 2-occ = -0.503328085634508 | -0.518556047098604 | -0.488100124170414
  Lowest 0-occ =   0.506560469784653 |  0.482102069708539 |  0.528804835340913
  1-occ =         -0.317196727893382 | -0.579240982795005 | -0.0451958175508138
  Roothaan mo_energy =
[-1.095823   -0.50332809 -0.50332809 -0.31719673  0.50656047  0.51737834
  0.51737834  0.51823132  0.52382101  0.52382101  0.5545073   0.56145876
  0.56145876  1.54272117  1.54618542  1.54618542  1.55782155  1.55782155
  1.57720432  1.57720432  1.65586782  1.662887    1.662887    1.68480029
  1.68480029  2.67839402  2.70888389  2.70888389  2.89688335  3.93131315
  3.93473792  3.93473792  3.94501604  3.94501604  3.96216031  3.96216031
  3.98620036  3.98620036  4.34262398  4.34792671  4.34792671  4.3642255
  4.3642255   4.39163254  4.39163254  5.01999567  5.02979918  5.02979918
  5.06026342  5.06026342 11.24887424 11.2791319  11.2791319  17.26201668]
E1 = -24.705481530780443  Ecoul = 10.014319715611549
cycle= 2 E= -14.6911618151689  delta_E= -0.00311  |g|= 0.0186  |ddm|= 0.344
    CPU time for cycle= 2     29.57 sec, wall time      0.23 sec
  HOMO = -0.296061827864525  LUMO = 0.516755249709277
                  Roothaan           | alpha              | beta
  Highest 2-occ = -0.488948172706956 | -0.503875961951318 | -0.473488734678299
  Lowest 0-occ =   0.516755249709277 |  0.489130832931022 |  0.533831673936903
  1-occ =         -0.296061827864525 | -0.568137611080586 | -0.0233526255726008
  Roothaan mo_energy =
[-1.07737296 -0.48894817 -0.48894817 -0.29606183  0.51675525  0.5301416
  0.5301416   0.5302897   0.53504341  0.53504341  0.55777827  0.56783904
  0.56783904  1.55385705  1.55752056  1.55752056  1.56820467  1.56820467
  1.58602395  1.58602395  1.6768608   1.68328917  1.68328917  1.7032352
  1.7032352   2.70129463  2.72883459  2.72883459  2.9185608   3.95057041
  3.95372982  3.95372982  3.96321377  3.96321377  3.97904343  3.97904343
  4.00127397  4.00127397  4.36832619  4.37335369  4.37335369  4.38841083
  4.38841083  4.41375541  4.41375541  5.05035487  5.05947291  5.05947291
  5.08778666  5.08778666 11.28574543 11.3138395  11.3138395  17.29992852]
E1 = -24.684184404194475  Ecoul = 9.992940151818646
cycle= 3 E= -14.6912442523758  delta_E= -8.24e-05  |g|= 0.00253  |ddm|= 0.0437
    CPU time for cycle= 3     17.40 sec, wall time      0.14 sec
  HOMO = -0.298510028598769  LUMO = 0.515613314308042
                  Roothaan           | alpha              | beta
  Highest 2-occ = -0.491345719959573 | -0.506775361765729 | -0.476448299360328
  Lowest 0-occ =   0.515613314308042 |  0.487193012942045 |  0.532746423362101
  1-occ =         -0.298510028598769 | -0.571211693141005 | -0.0262448893340412
  Roothaan mo_energy =
[-1.07998615 -0.49134572 -0.49134572 -0.29851003  0.51561331  0.52837486
  0.52837486  0.52861048  0.53316442  0.53316442  0.55671419  0.56689923
  0.56689923  1.55242853  1.55613378  1.55613378  1.56677255  1.56677255
  1.58452256  1.58452256  1.67371663  1.68015743  1.68015743  1.70004195
  1.70004195  2.69799104  2.725476    2.725476    2.91522456  3.94810685
  3.95125043  3.95125043  3.9606868   3.9606868   3.97643748  3.97643748
  3.99856081  3.99856081  4.36455757  4.36958197  4.36958197  4.38455577
  4.38455577  4.40975356  4.40975356  5.04559883  5.05465777  5.05465777
  5.08279362  5.08279362 11.27970633 11.30761682 11.30761682 17.29327183]
E1 = -24.687345994559585  Ecoul = 9.996098618225428
cycle= 4 E= -14.6912473763342  delta_E= -3.12e-06  |g|= 0.000385  |ddm|= 0.00966
    CPU time for cycle= 4     19.44 sec, wall time      0.15 sec
  HOMO = -0.298320951352978  LUMO = 0.515688034968017
                  Roothaan           | alpha              | beta
  Highest 2-occ = -0.491201900356509 | -0.506341199524346 | -0.476000069529094
  Lowest 0-occ =   0.515688034968017 |  0.487531099715581 |  0.532999016725203
  1-occ =         -0.298320951352978 | -0.570939560182906 | -0.0256219144270123
  Roothaan mo_energy =
[-1.07979424 -0.4912019  -0.4912019  -0.29832095  0.51568803  0.52846528
  0.52846528  0.5287121   0.53329653  0.53329653  0.55662248  0.56698549
  0.56698549  1.55248285  1.55619287  1.55619287  1.56685985  1.56685985
  1.58465784  1.58465784  1.67384662  1.68031447  1.68031447  1.70026367
  1.70026367  2.69809901  2.72569837  2.72569837  2.91543146  3.94820975
  3.95136078  3.95136078  3.96081934  3.96081934  3.97660647  3.97660647
  3.99877981  3.99877981  4.36473033  4.36976652  4.36976652  4.38477513
  4.38477513  4.41002808  4.41002808  5.04583429  5.05491115  5.05491115
  5.08310247  5.08310247 11.28000852 11.30797445 11.30797445 17.29364051]
E1 = -24.68704360927095  Ecoul = 9.995796179384207
cycle= 5 E= -14.6912474298867  delta_E= -5.36e-08  |g|= 1.58e-05  |ddm|= 0.000975
    CPU time for cycle= 5     18.93 sec, wall time      0.15 sec
  HOMO = -0.298332417801038  LUMO = 0.515681574950981
                  Roothaan           | alpha              | beta
  Highest 2-occ = -0.491209268463705 | -0.506380972574815 |  -0.47603865256322
  Lowest 0-occ =   0.515681574950981 |  0.487500409451618 |  0.532973978569691
  1-occ =         -0.298332417801038 | -0.571001721703691 | -0.0256626304548785
  Roothaan mo_energy =
[-1.07980476 -0.49120927 -0.49120927 -0.29833242  0.51568157  0.52845774
  0.52845774  0.52870519  0.53328964  0.53328964  0.55661911  0.56698234
  0.56698234  1.55247598  1.5561857   1.5561857   1.5668531   1.5668531
  1.58465175  1.58465175  1.67383653  1.68030406  1.68030406  1.70025415
  1.70025415  2.69808767  2.72568788  2.72568788  2.91542     3.94819892
  3.95135004  3.95135004  3.96080882  3.96080882  3.97659626  3.97659626
  3.99876977  3.99876977  4.36471811  4.36975416  4.36975416  4.3847628
  4.3847628   4.41001572  4.41001572  5.04582132  5.05489824  5.05489824
  5.08308918  5.08308918 11.27999428 11.30795961 11.30795961 17.29362532]
E1 = -24.68704896919039  Ecoul = 9.995801539230623
cycle= 6 E= -14.6912474299598  delta_E= -7.3e-11  |g|= 1.4e-06  |ddm|= 5.32e-05
    CPU time for cycle= 6     25.60 sec, wall time      0.20 sec
  HOMO = -0.29833162992061  LUMO = 0.515681798084013
                  Roothaan           | alpha              | beta
  Highest 2-occ = -0.491208809296373 | -0.506380018165086 |  -0.47603760042766
  Lowest 0-occ =   0.515681798084013 |  0.487500494692517 |   0.53297367564316
  1-occ =          -0.29833162992061 | -0.571001713461098 | -0.0256614811526733
  Roothaan mo_energy =
[-1.07980447 -0.49120881 -0.49120881 -0.29833163  0.5156818   0.52845805
  0.52845805  0.52870538  0.53328985  0.53328985  0.55661856  0.56698254
  0.56698254  1.55247617  1.55618593  1.55618593  1.56685332  1.56685332
  1.58465193  1.58465193  1.67383693  1.68030448  1.68030448  1.70025453
  1.70025453  2.69808812  2.7256883   2.7256883   2.91542041  3.94819936
  3.95135046  3.95135046  3.96080921  3.96080921  3.97659659  3.97659659
  3.99877004  3.99877004  4.36471867  4.36975472  4.36975472  4.38476329
  4.38476329  4.41001611  4.41001611  5.04582199  5.05489886  5.05489886
  5.08308967  5.08308967 11.27999509 11.30796026 11.30796026 17.29362605]
E1 = -24.68704788493914  Ecoul = 9.995800454978507
Extra cycle  E= -14.6912474299606  delta_E= -8.67e-13  |g|= 3.34e-07  |ddm|= 5.25e-06
    CPU time for scf_cycle    239.51 sec, wall time      2.02 sec
    CPU time for SCF    239.51 sec, wall time      2.02 sec
converged SCF energy = -14.6912474299606
