#INFO: **** input file is /home/nkousuke/lustre/toBeSync/turboRVB/05turbo-genius-development/turbogenius_paper/04data/sanity_checks/03pyscf_HF_turbo_VMC_via_trexio/00open_boundary/results/Na/pyscf-HF-workflow/run.py ****

from pyscf_wrapper import Pyscf_wrapper

# input variables
pyscf_chkfile="pyscf.chk"
structure_file="Na.xyz"

# input variables
omp_num_threads=128
charge=0
spin=1
basis="ccecp-ccpvqz"
ecp="ccecp"
scf_method="HF"
dft_xc="NA"
solver_newton=False
MP2_flag=False
CCSD_flag=False
pyscf_output="out.pyscf"
twist_average=False
exp_to_discard=0.0
kpt=[0.0, 0.0, 0.0]
kpt_grid=[1, 1, 1]
smearing_method="fermi"
smearing_sigma=0.0

pyscf_calc=Pyscf_wrapper(
                        structure_file=structure_file,
                        chkfile=pyscf_chkfile,
                        )

pyscf_calc.run_pyscf(
                  omp_num_threads=omp_num_threads,
                  charge=charge,
                  spin=spin,
                  basis=basis,
                  ecp=ecp,
                  scf_method=scf_method,
                  dft_xc=dft_xc,
                  solver_newton=solver_newton,
                  MP2_flag=MP2_flag,
                  CCSD_flag=CCSD_flag,
                  pyscf_output=pyscf_output,
                  twist_average=twist_average,
                  exp_to_discard=exp_to_discard,
                  kpt=kpt,
                  kpt_grid=kpt_grid,
                  smearing_method=smearing_method,
                  smearing_sigma=smearing_sigma
                  )
                #INFO: ******************** input file end ********************


System: uname_result(system='Linux', node='spcc-105', release='5.4.0-66-generic', version='#74-Ubuntu SMP Wed Jan 27 22:54:38 UTC 2021', machine='x86_64', processor='x86_64')  Threads 128
Python 3.7.3 (default, Mar 27 2019, 22:11:17) 
[GCC 7.3.0]
numpy 1.20.1  scipy 1.7.3
Date: Mon Dec 19 18:10:56 2022
PySCF version 2.0.1
PySCF path  /home/nkousuke/application/anaconda3/lib/python3.7/site-packages/pyscf

[CONFIG] conf_file /home/nkousuke/.pyscf_conf.py
[INPUT] verbose = 5
[INPUT] max_memory = 507634.03125 
[INPUT] num. atoms = 1
[INPUT] num. electrons = 1
[INPUT] charge = 0
[INPUT] spin (= nelec alpha-beta = 2S) = 1
[INPUT] symmetry False subgroup None
[INPUT] Mole.unit = A
[INPUT]  1 Na     0.000000000000   0.000000000000   0.000000000000 AA    0.000000000000   0.000000000000   0.000000000000 Bohr
[INPUT] ---------------- BASIS SET ---------------- 
[INPUT] l, kappa, [nprim/nctr], expnt,             c_1 c_2 ...
[INPUT] Na
[INPUT] 0    0    [10   /1   ]  22.091548         -6.4e-05
                                9.660603          0.000452
                                4.224568          -0.002616
                                1.847398          0.024309
                                0.807864          -0.099989
                                0.353278          -0.109801
                                0.154488          0.032993
                                0.067557          0.37763
                                0.029543          0.400459
                                0.012919          0.072453
[INPUT] 0    0    [1    /1   ]  0.01612              1
[INPUT] 0    0    [1    /1   ]  0.03289              1
[INPUT] 0    0    [1    /1   ]  0.067106             1
[INPUT] 1    0    [10   /1   ]  9.29421           1.1e-05
                                4.233556          -8.1e-05
                                1.928405          0.000955
                                0.878398          -0.006278
                                0.400114          -0.009165
                                0.182254          0.011214
                                0.083018          0.064076
                                0.037815          0.027336
                                0.017225          0.027603
                                0.007846          -0.005374
[INPUT] 1    0    [1    /1   ]  0.01342              1
[INPUT] 1    0    [1    /1   ]  0.03126              1
[INPUT] 1    0    [1    /1   ]  0.072816             1
[INPUT] 2    0    [1    /1   ]  0.0487               1
[INPUT] 2    0    [1    /1   ]  0.0865               1
[INPUT] 2    0    [1    /1   ]  0.15364              1
[INPUT] 3    0    [1    /1   ]  0.1036               1
[INPUT] 3    0    [1    /1   ]  0.1912               1
[INPUT] 4    0    [1    /1   ]  0.1722               1

nuclear repulsion = 0
number of shells = 14
number of NR pGTOs = 90
number of NR cGTOs = 54
basis = ccecp-ccpvqz
ecp = ccecp
CPU time:         4.39


******** <class 'pyscf.scf.rohf.ROHF'> ********
method = ROHF-RHF
initial guess = minao
damping factor = 0
level_shift factor = 0
DIIS = <class 'pyscf.scf.diis.CDIIS'>
diis_start_cycle = 1
diis_space = 8
SCF conv_tol = 1e-09
SCF conv_tol_grad = None
SCF max_cycles = 200
direct_scf = True
direct_scf_tol = 1e-13
chkfile to save SCF result = pyscf.chk
max_memory 507634 MB (current use 106 MB)
num. doubly occ = 0  num. singly occ = 1
Set gradient conv threshold to 3.16228e-05
E1 = -0.18095987663966082  Ecoul = 0.053656973547867755
init E= -0.127302903091793
cond(S) = 766.5207468606053
    CPU time for initialize scf     83.40 sec, wall time      0.82 sec
E1 = -0.18388908131396073  Ecoul = 1.3634689351952471e-17
cycle= 1 E= -0.183889081313961  delta_E= -0.0566  |g|= 0.0183  |ddm|= 0.557
    CPU time for cycle= 1     17.40 sec, wall time      0.14 sec
E1 = -0.18604004308688116  Ecoul = -4.092757322014374e-18
cycle= 2 E= -0.186040043086881  delta_E= -0.00215  |g|= 0.00556  |ddm|= 0.269
    CPU time for cycle= 2     26.49 sec, wall time      0.21 sec
E1 = -0.18620430428413842  Ecoul = -2.020173579201507e-18
cycle= 3 E= -0.186204304284138  delta_E= -0.000164  |g|= 0.000415  |ddm|= 0.119
    CPU time for cycle= 3     14.84 sec, wall time      0.12 sec
E1 = -0.18620496051599003  Ecoul = 3.9268447434709356e-18
cycle= 4 E= -0.18620496051599  delta_E= -6.56e-07  |g|= 5.87e-05  |ddm|= 0.0193
    CPU time for cycle= 4     23.03 sec, wall time      0.18 sec
E1 = -0.1862049851345516  Ecoul = -8.114575634696209e-19
cycle= 5 E= -0.186204985134552  delta_E= -2.46e-08  |g|= 7.67e-06  |ddm|= 0.00266
    CPU time for cycle= 5     21.51 sec, wall time      0.17 sec
E1 = -0.18620498561787469  Ecoul = 1.7199003993998568e-17
cycle= 6 E= -0.186204985617875  delta_E= -4.83e-10  |g|= 2.72e-08  |ddm|= 0.000272
    CPU time for cycle= 6     16.89 sec, wall time      0.13 sec
E1 = -0.186204985617878  Ecoul = 2.0066210520454367e-18
Extra cycle  E= -0.186204985617878  delta_E= -3.33e-15  |g|= 2.89e-09  |ddm|= 1.22e-06
    CPU time for scf_cycle    227.09 sec, wall time      1.94 sec
    CPU time for SCF    227.09 sec, wall time      1.94 sec
converged SCF energy = -0.186204985617878
