#INFO: **** input file is /home/nkousuke/lustre/toBeSync/turboRVB/05turbo-genius-development/turbogenius_paper/04data/sanity_checks/02pyscf_prep_LDA_via_trexio/00open_boundary/results/SiO/pyscf-LDA-workflow/run.py ****

from pyscf_wrapper import Pyscf_wrapper

# input variables
pyscf_chkfile="pyscf.chk"
structure_file="SiO.xyz"

# input variables
omp_num_threads=128
charge=0
spin=0
basis="ccecp-ccpvqz"
ecp="ccecp"
scf_method="DFT"
dft_xc="LDA_X,LDA_C_PZ"
solver_newton=False
MP2_flag=False
CCSD_flag=False
pyscf_output="out.pyscf"
twist_average=False
exp_to_discard=0.1
kpt=[0.0, 0.0, 0.0]
kpt_grid=[1, 1, 1]
smearing_method="fermi"
smearing_sigma=0.0

pyscf_calc=Pyscf_wrapper(
                        structure_file=structure_file,
                        chkfile=pyscf_chkfile,
                        )

pyscf_calc.run_pyscf(
                  omp_num_threads=omp_num_threads,
                  charge=charge,
                  spin=spin,
                  basis=basis,
                  ecp=ecp,
                  scf_method=scf_method,
                  dft_xc=dft_xc,
                  solver_newton=solver_newton,
                  MP2_flag=MP2_flag,
                  CCSD_flag=CCSD_flag,
                  pyscf_output=pyscf_output,
                  twist_average=twist_average,
                  exp_to_discard=exp_to_discard,
                  kpt=kpt,
                  kpt_grid=kpt_grid,
                  smearing_method=smearing_method,
                  smearing_sigma=smearing_sigma
                  )
                #INFO: ******************** input file end ********************


System: uname_result(system='Linux', node='spcc-109', release='5.4.0-66-generic', version='#74-Ubuntu SMP Wed Jan 27 22:54:38 UTC 2021', machine='x86_64', processor='x86_64')  Threads 128
Python 3.7.3 (default, Mar 27 2019, 22:11:17) 
[GCC 7.3.0]
numpy 1.20.1  scipy 1.7.3
Date: Thu Dec 22 07:21:13 2022
PySCF version 2.0.1
PySCF path  /home/nkousuke/application/anaconda3/lib/python3.7/site-packages/pyscf

[CONFIG] conf_file /home/nkousuke/.pyscf_conf.py
[INPUT] verbose = 5
[INPUT] max_memory = 507883.98828125 
[INPUT] num. atoms = 2
[INPUT] num. electrons = 10
[INPUT] charge = 0
[INPUT] spin (= nelec alpha-beta = 2S) = 0
[INPUT] symmetry False subgroup None
[INPUT] Mole.unit = A
[INPUT]  1 Si     0.000000000000   0.000000000000   0.549090000000 AA    0.000000000000   0.000000000000   1.037629717737 Bohr
[INPUT]  2 O      0.000000000000   0.000000000000  -0.960910000000 AA    0.000000000000   0.000000000000  -1.815856730356 Bohr
[INPUT] ---------------- BASIS SET ---------------- 
[INPUT] l, kappa, [nprim/nctr], expnt,             c_1 c_2 ...
[INPUT] Si
[INPUT] 0    0    [10   /1   ]  9.998274          0.002894
                                5.517644          -0.014523
                                3.044965          0.077634
                                1.680393          -0.224022
                                0.927341          -0.14908
                                0.511762          0.085944
                                0.282421          0.355394
                                0.155857          0.445219
                                0.086011          0.26723
                                0.047466          0.060787
[INPUT] 0    0    [1    /1   ]  0.488504             1
[INPUT] 0    0    [1    /1   ]  0.199457             1
[INPUT] 0    0    [1    /1   ]  0.081439             1
[INPUT] 1    0    [10   /1   ]  5.027868          -0.003242
                                2.867751          0.010649
                                1.635683          -0.049761
                                0.932947          -1.7e-05
                                0.532126          0.10606
                                0.303509          0.236202
                                0.173113          0.310665
                                0.098739          0.294696
                                0.056318          0.153898
                                0.032122          0.042337
[INPUT] 1    0    [1    /1   ]  1.22579              1
[INPUT] 1    0    [1    /1   ]  0.501364             1
[INPUT] 1    0    [1    /1   ]  0.205064             1
[INPUT] 2    0    [1    /1   ]  0.997003             1
[INPUT] 2    0    [1    /1   ]  0.365942             1
[INPUT] 2    0    [1    /1   ]  0.134316             1
[INPUT] 3    0    [1    /1   ]  0.549116             1
[INPUT] 3    0    [1    /1   ]  0.214998             1
[INPUT] 4    0    [1    /1   ]  0.459547             1
[INPUT] O
[INPUT] 0    0    [9    /1   ]  54.775216         -0.0012444
                                25.616801         0.010733
                                11.980245         0.0018889
                                6.992317          -0.1742537
                                2.620277          0.0017622
                                1.225429          0.3161846
                                0.577797          0.4512023
                                0.268022          0.3121534
                                0.125346          0.0511167
[INPUT] 0    0    [1    /1   ]  1.351771             1
[INPUT] 0    0    [1    /1   ]  0.843157             1
[INPUT] 0    0    [1    /1   ]  0.22438              1
[INPUT] 1    0    [9    /1   ]  22.217266         0.0104866
                                10.74755          0.0366435
                                5.315785          0.0803674
                                2.660761          0.162701
                                1.331816          0.2377791
                                0.678626          0.2811422
                                0.333673          0.2643189
                                0.167017          0.1466014
                                0.083598          0.0458145
[INPUT] 1    0    [1    /1   ]  1.106737             1
[INPUT] 1    0    [1    /1   ]  0.452364             1
[INPUT] 1    0    [1    /1   ]  0.148562             1
[INPUT] 2    0    [1    /1   ]  4.008867             1
[INPUT] 2    0    [1    /1   ]  1.344331             1
[INPUT] 2    0    [1    /1   ]  0.455711             1
[INPUT] 3    0    [1    /1   ]  2.763115             1
[INPUT] 3    0    [1    /1   ]  0.876289             1
[INPUT] 4    0    [1    /1   ]  1.759081             1

nuclear repulsion = 8.41076361727152
number of shells = 28
number of NR pGTOs = 176
number of NR cGTOs = 108
basis = ccecp-ccpvqz
ecp = ccecp
CPU time:         5.12


******** <class 'pyscf.df.df_jk.density_fit.<locals>.DFHF'> ********
method = DFHF-RKS-RHF
initial guess = minao
damping factor = 0
level_shift factor = 0
DIIS = <class 'pyscf.scf.diis.CDIIS'>
diis_start_cycle = 1
diis_space = 8
SCF conv_tol = 1e-09
SCF conv_tol_grad = None
SCF max_cycles = 200
direct_scf = True
direct_scf_tol = 1e-13
chkfile to save SCF result = pyscf.chk
max_memory 507883 MB (current use 106 MB)
XC library pyscf.dft.libxc version 5.1.7
    S. Lehtola, C. Steigemann, M. J. Oliveira, and M. A. Marques, SoftwareX 7, 1 (2018)
XC functionals = LDA_X,LDA_C_PZ
    P. A. M. Dirac, Math. Proc. Cambridge Philos. Soc. 26, 376 (1930)
    F. Bloch, Z. Phys. 57, 545 (1929)
    J. P. Perdew and A. Zunger, Phys. Rev. B 23, 5048 (1981)
radial grids: 
    Treutler-Ahlrichs [JCP 102, 346 (1995); DOI:10.1063/1.469408] (M4) radial grids
    
becke partition: Becke, JCP 88, 2547 (1988); DOI:10.1063/1.454033
pruning grids: <function nwchem_prune at 0x14b34b7787b8>
grids dens level: 3
symmetrized grids: False
atomic radii adjust function: <function treutler_atomic_radii_adjust at 0x14b34b7786a8>
small_rho_cutoff = 1e-07
Set gradient conv threshold to 3.16228e-05
atom Si rad-grids = 80, ang-grids = [ 50  50  50  50  50  50  50  50  50  50  50  50  50  50  50  50  50  50
  50  50  50  50  50  50  86  86  86  86  86  86  86  86  86  86  86  86
  86  86 350 350 350 350 350 350 350 350 350 434 434 434 434 434 434 434
 434 434 434 434 434 434 434 434 434 434 434 434 350 350 350 350 350 350
 350 350 350 350 350 350 350 350]
atom O rad-grids = 75, ang-grids = [ 50  50  50  50  50  50  50  50  50  50  50  50  50  50  50  50  50  50
  50  50  50  50  86  86  86  86  86  86  86  86  86 266 266 266 266 266
 266 266 302 302 302 302 302 302 302 302 302 302 302 302 302 302 302 302
 302 302 302 266 266 266 266 266 266 266 266 266 266 266 266 266 266 266
 266 266 266]
tot grids = 32962
Drop grids 1054
    CPU time for setting up grids     28.49 sec, wall time      0.24 sec
nelec by numeric integration = 9.999999766463265
    CPU time for vxc     32.77 sec, wall time      0.26 sec
Even tempered Gaussians are generated as DF auxbasis for  Si O
  ETB auxbasis for Si  [[0, [12.151296, 1]], [0, [6.075648, 1]], [0, [3.037824, 1]], [0, [1.518912, 1]], [0, [0.759456, 1]], [0, [0.379728, 1]], [0, [0.189864, 1]], [0, [0.094932, 1]], [1, [9.996145562599215, 1]], [1, [4.998072781299608, 1]], [1, [2.499036390649804, 1]], [1, [1.249518195324902, 1]], [1, [0.624759097662451, 1]], [1, [0.3123795488312255, 1]], [1, [0.15618977441561274, 1]], [1, [0.07809488720780637, 1]], [2, [8.223232, 1]], [2, [4.111616, 1]], [2, [2.055808, 1]], [2, [1.027904, 1]], [2, [0.513952, 1]], [2, [0.256976, 1]], [2, [0.128488, 1]], [2, [0.064244, 1]], [3, [4.203829928647447, 1]], [3, [2.1019149643237234, 1]], [3, [1.0509574821618617, 1]], [3, [0.5254787410809308, 1]], [3, [0.2627393705404654, 1]], [3, [0.1313696852702327, 1]], [4, [2.149056, 1]], [4, [1.074528, 1]], [4, [0.537264, 1]], [4, [0.268632, 1]]]
  ETB auxbasis for O  [[0, [64.177152, 1]], [0, [32.088576, 1]], [0, [16.044288, 1]], [0, [8.022144, 1]], [0, [4.011072, 1]], [0, [2.005536, 1]], [0, [1.002768, 1]], [0, [0.501384, 1]], [0, [0.250692, 1]], [1, [52.41108427692326, 1]], [1, [26.20554213846163, 1]], [1, [13.102771069230815, 1]], [1, [6.551385534615408, 1]], [1, [3.275692767307704, 1]], [1, [1.637846383653852, 1]], [1, [0.818923191826926, 1]], [1, [0.409461595913463, 1]], [1, [0.2047307979567315, 1]], [2, [42.802176, 1]], [2, [21.401088, 1]], [2, [10.700544, 1]], [2, [5.350272, 1]], [2, [2.675136, 1]], [2, [1.337568, 1]], [2, [0.668784, 1]], [2, [0.334392, 1]], [2, [0.167196, 1]], [3, [12.491732442583295, 1]], [3, [6.245866221291648, 1]], [3, [3.122933110645824, 1]], [3, [1.561466555322912, 1]], [3, [0.780733277661456, 1]], [3, [0.390366638830728, 1]], [4, [7.291376, 1]], [4, [3.645688, 1]], [4, [1.822844, 1]], [4, [0.911422, 1]]]
num shells = 71, num cGTOs = 309
    CPU time for df-vj     27.69 sec, wall time      0.22 sec
E1 = -47.82605467560079  Ecoul = 24.069763030485657  Exc = -4.2899017831779105
init E= -19.6354298110215
cond(S) = 8515.529533169502
    CPU time for initialize scf    215.82 sec, wall time      1.88 sec
  HOMO = -0.319480092666796  LUMO = -0.120765045569771
  mo_energy =
[-1.05824146e+00 -5.29747457e-01 -4.58884405e-01 -4.58884405e-01
 -3.19480093e-01 -1.20765046e-01 -1.20765046e-01 -2.53666231e-02
  1.13588641e-01  1.32488385e-01  1.32488387e-01  1.50436556e-01
  1.59788957e-01  1.59788957e-01  1.98737665e-01  1.98737665e-01
  2.81784481e-01  3.36406962e-01  3.36406962e-01  3.84890379e-01
  5.50936737e-01  5.50936827e-01  5.95464702e-01  5.95464702e-01
  6.80389138e-01  6.80389138e-01  6.82243348e-01  6.97682578e-01
  6.97682656e-01  7.60261325e-01  7.60261325e-01  8.33735852e-01
  9.60272755e-01  1.09070488e+00  1.09165295e+00  1.09165295e+00
  1.10667599e+00  1.10667613e+00  1.22206844e+00  1.39180491e+00
  1.39180491e+00  1.60194075e+00  1.80280002e+00  1.80280002e+00
  1.87536901e+00  1.87536901e+00  1.90633351e+00  1.90633353e+00
  1.91655815e+00  1.91655855e+00  1.96890980e+00  1.96890980e+00
  2.04253665e+00  2.04253665e+00  2.05369268e+00  2.08657355e+00
  2.08657470e+00  2.15765189e+00  2.21286860e+00  2.21286860e+00
  2.34986073e+00  2.34986170e+00  2.69277755e+00  2.77366517e+00
  2.77366517e+00  2.89530164e+00  3.06645665e+00  3.06645665e+00
  3.45260511e+00  3.45260523e+00  3.81091571e+00  3.83578349e+00
  3.83578747e+00  3.89074758e+00  3.89074758e+00  4.26778042e+00
  4.26778042e+00  4.40011406e+00  4.70498032e+00  5.01927337e+00
  5.01927337e+00  6.12389847e+00  6.62694072e+00  6.62694072e+00
  7.49619288e+00  8.16570576e+00  8.16580725e+00  8.17898648e+00
  8.17898648e+00  8.27208702e+00  8.27209002e+00  8.39451462e+00
  8.39451462e+00  8.45409766e+00  9.85872793e+00  1.09465690e+01
  1.09465690e+01  1.11598808e+01  1.11598910e+01  1.16260266e+01
  1.16260266e+01  1.16754057e+01  1.21591861e+01  1.21592626e+01
  1.23683172e+01  1.23683172e+01  1.26130151e+01  3.17546076e+01]
nelec by numeric integration = 9.999999738252138
    CPU time for vxc     32.79 sec, wall time      0.26 sec
    CPU time for df-vj      8.08 sec, wall time      0.06 sec
E1 = -51.478029120719064  Ecoul = 28.459406659695937  Exc = -4.955682526966716
cycle= 1 E= -19.5635413707183  delta_E= 0.0719  |g|= 1.14  |ddm|=  2.1
    CPU time for cycle= 1     54.63 sec, wall time      0.47 sec
  HOMO = -0.0494859747076687  LUMO = 0.0445860973321291
  mo_energy =
[-0.53776473 -0.36587256 -0.19081992 -0.19081992 -0.04948597  0.0445861
  0.0445861   0.05981283  0.09321943  0.1185342   0.1185342   0.15787816
  0.15787816  0.26592162  0.29764174  0.29764174  0.37276381  0.50574183
  0.53664779  0.53664779  0.5771324   0.5771324   0.58635713  0.58635722
  0.67362705  0.67362707  0.70969032  0.74273834  0.74273834  0.8006433
  0.8006433   1.04170029  1.08354576  1.08354576  1.11699881  1.19361204
  1.36149691  1.37216161  1.37216166  1.68696784  1.68696784  1.78595895
  1.87583421  1.87583421  1.87977241  1.87977289  1.92620342  1.92620386
  1.94196865  1.94196865  2.03955805  2.03955805  2.07139101  2.13123454
  2.13123533  2.200263    2.200263    2.24382441  2.24382441  2.31742771
  2.32732215  2.3273232   2.89651931  2.90145075  2.90145075  3.16502801
  3.45681193  3.45681193  3.86008833  3.86008851  4.29758289  4.29758289
  4.33358695  4.37358513  4.37358986  4.66348306  4.66348306  4.76625641
  5.04505406  5.12538992  5.12538992  6.43550199  7.36008337  7.36008337
  8.21465846  8.72666512  8.72677161  8.74158676  8.74158676  8.83561876
  8.83562137  8.96245395  8.96245395  9.02031958  9.91396614 11.68335266
 11.68335266 11.89738793 11.89739737 12.35754915 12.35754915 12.39338733
 12.99151651 12.99159702 13.19780463 13.19780463 13.43570673 32.77033023]
nelec by numeric integration = 9.999999867263641
    CPU time for vxc     35.82 sec, wall time      0.28 sec
    CPU time for df-vj      1.54 sec, wall time      0.01 sec
E1 = -36.53809040608894  Ecoul = 17.335305408580474  Exc = -3.1616527620258665
cycle= 2 E= -13.9536741422628  delta_E= 5.61  |g|= 3.52  |ddm|= 6.43
    CPU time for cycle= 2     90.62 sec, wall time      0.71 sec
  HOMO = -0.250434058324779  LUMO = -0.0838556680660246
  mo_energy =
[-8.56154261e-01 -3.83159311e-01 -2.92409625e-01 -2.92409625e-01
 -2.50434058e-01 -8.38556681e-02 -8.38556681e-02  1.03701370e-02
  1.39901686e-01  1.45099626e-01  1.45099632e-01  1.75382798e-01
  1.75382798e-01  1.83624090e-01  2.42626061e-01  2.42626061e-01
  3.16549629e-01  3.84544883e-01  3.84544883e-01  4.35070377e-01
  5.78619302e-01  5.78619400e-01  6.04457693e-01  6.04457693e-01
  7.12437660e-01  7.12437717e-01  7.13600529e-01  7.29794604e-01
  7.29794604e-01  7.82220505e-01  7.82220505e-01  9.25535225e-01
  1.02774923e+00  1.11187477e+00  1.11187477e+00  1.13201045e+00
  1.18210321e+00  1.18210330e+00  1.28148135e+00  1.48537478e+00
  1.48537478e+00  1.66529988e+00  1.90047014e+00  1.90047014e+00
  1.92422902e+00  1.92422952e+00  1.92502863e+00  1.92502863e+00
  1.94347329e+00  1.94347338e+00  1.98039217e+00  1.98039217e+00
  2.08778415e+00  2.08778415e+00  2.09852679e+00  2.11913664e+00
  2.11913781e+00  2.22866664e+00  2.24603858e+00  2.24603858e+00
  2.37105991e+00  2.37106098e+00  2.77606039e+00  2.83274062e+00
  2.83274062e+00  2.98648118e+00  3.17629597e+00  3.17629597e+00
  3.58546848e+00  3.58546850e+00  3.99247478e+00  3.99622085e+00
  3.99622503e+00  4.05177949e+00  4.05177949e+00  4.38666980e+00
  4.38666980e+00  4.52947909e+00  4.83889647e+00  5.07180871e+00
  5.07180871e+00  6.24096428e+00  6.87965048e+00  6.87965048e+00
  7.74792587e+00  8.33735056e+00  8.33745182e+00  8.35598633e+00
  8.35598633e+00  8.45522456e+00  8.45522700e+00  8.58556791e+00
  8.58556791e+00  8.64750178e+00  9.92009889e+00  1.11916191e+01
  1.11916191e+01  1.14106165e+01  1.14106257e+01  1.18796105e+01
  1.18796105e+01  1.19226834e+01  1.24477342e+01  1.24478110e+01
  1.26572559e+01  1.26572559e+01  1.29044485e+01  3.21307915e+01]
nelec by numeric integration = 9.999999775401363
    CPU time for vxc     25.47 sec, wall time      0.20 sec
    CPU time for df-vj      3.03 sec, wall time      0.02 sec
E1 = -48.57169102817932  Ecoul = 24.674912486213653  Exc = -4.337335923408171
cycle= 3 E= -19.8233508481023  delta_E= -5.87  |g|= 0.417  |ddm|=  5.7
    CPU time for cycle= 3     54.20 sec, wall time      0.42 sec
  HOMO = -0.273665046921171  LUMO = -0.110334248824014
  mo_energy =
[-8.51756349e-01 -3.97822729e-01 -2.88651055e-01 -2.88651055e-01
 -2.73665047e-01 -1.10334249e-01 -1.10334249e-01 -8.50898945e-03
  1.12161374e-01  1.33157482e-01  1.33157487e-01  1.66099084e-01
  1.66099084e-01  1.83794354e-01  2.22018446e-01  2.22018446e-01
  3.23995127e-01  4.04889519e-01  4.04889519e-01  4.21019347e-01
  5.70371209e-01  5.70371309e-01  5.91732314e-01  5.91732314e-01
  6.95256698e-01  6.97002710e-01  6.97002757e-01  7.16303364e-01
  7.16303364e-01  7.61274947e-01  7.61274947e-01  9.46213718e-01
  1.03246739e+00  1.08655027e+00  1.09773894e+00  1.09773894e+00
  1.20677290e+00  1.20677303e+00  1.27142456e+00  1.50857484e+00
  1.50857484e+00  1.67315700e+00  1.88722470e+00  1.88722470e+00
  1.90729311e+00  1.90729357e+00  1.91993294e+00  1.91993294e+00
  1.93348100e+00  1.93348121e+00  1.96258338e+00  1.96258338e+00
  2.05964433e+00  2.05964433e+00  2.06383847e+00  2.10009364e+00
  2.10009466e+00  2.23085136e+00  2.23230602e+00  2.23230602e+00
  2.35392855e+00  2.35392955e+00  2.76688995e+00  2.82669245e+00
  2.82669245e+00  2.98317214e+00  3.20931133e+00  3.20931133e+00
  3.60637197e+00  3.60637224e+00  4.00107110e+00  4.00381965e+00
  4.00382366e+00  4.05290612e+00  4.05290612e+00  4.39767715e+00
  4.39767715e+00  4.53280863e+00  4.82814184e+00  5.06381034e+00
  5.06381034e+00  6.21766553e+00  6.84037232e+00  6.84037232e+00
  7.71397022e+00  8.35420451e+00  8.35430517e+00  8.37570658e+00
  8.37570658e+00  8.47576969e+00  8.47577121e+00  8.60449128e+00
  8.60449128e+00  8.66482246e+00  9.90665218e+00  1.11679437e+01
  1.11679437e+01  1.13903152e+01  1.13903238e+01  1.18602665e+01
  1.18602665e+01  1.19064126e+01  1.23966292e+01  1.23967060e+01
  1.26123875e+01  1.26123875e+01  1.28605937e+01  3.20278594e+01]
nelec by numeric integration = 9.99999976547022
    CPU time for vxc     29.01 sec, wall time      0.23 sec
    CPU time for df-vj      2.01 sec, wall time      0.01 sec
E1 = -48.8129217053169  Ecoul = 24.979855546495475  Exc = -4.422526154526326
cycle= 4 E= -19.8448286960762  delta_E= -0.0215  |g|= 0.141  |ddm|= 0.469
    CPU time for cycle= 4     81.85 sec, wall time      0.64 sec
  HOMO = -0.268816005709758  LUMO = -0.104924889872524
  mo_energy =
[-8.55746604e-01 -3.92222218e-01 -2.91472339e-01 -2.91472339e-01
 -2.68816006e-01 -1.04924890e-01 -1.04924890e-01 -4.10448980e-03
  1.18871393e-01  1.35384378e-01  1.35384383e-01  1.68251451e-01
  1.68251451e-01  1.84082413e-01  2.25812480e-01  2.25812480e-01
  3.23542371e-01  4.00676537e-01  4.00676537e-01  4.23060420e-01
  5.71812477e-01  5.71812580e-01  5.93592170e-01  5.93592170e-01
  7.00320381e-01  7.00803096e-01  7.00803144e-01  7.19813481e-01
  7.19813481e-01  7.66295433e-01  7.66295433e-01  9.42812403e-01
  1.03235702e+00  1.09822883e+00  1.10160359e+00  1.10160359e+00
  1.20203574e+00  1.20203588e+00  1.27382727e+00  1.50475911e+00
  1.50475911e+00  1.67312674e+00  1.89085502e+00  1.89085502e+00
  1.91018808e+00  1.91018856e+00  1.91979450e+00  1.91979450e+00
  1.93745182e+00  1.93745201e+00  1.96605654e+00  1.96605654e+00
  2.06860484e+00  2.06860484e+00  2.07432602e+00  2.10481973e+00
  2.10482078e+00  2.23091200e+00  2.23620385e+00  2.23620385e+00
  2.35940063e+00  2.35940160e+00  2.77094617e+00  2.82996618e+00
  2.82996618e+00  2.98455366e+00  3.20261474e+00  3.20261474e+00
  3.60119099e+00  3.60119133e+00  3.99793976e+00  4.00091281e+00
  4.00091684e+00  4.05132653e+00  4.05132653e+00  4.39684522e+00
  4.39684522e+00  4.53447254e+00  4.82980038e+00  5.06809840e+00
  5.06809840e+00  6.22322131e+00  6.84198972e+00  6.84198972e+00
  7.71598032e+00  8.34882252e+00  8.34892300e+00  8.37050310e+00
  8.37050310e+00  8.47057743e+00  8.47057910e+00  8.59924932e+00
  8.59924932e+00  8.65985041e+00  9.91211476e+00  1.11674961e+01
  1.11674961e+01  1.13901581e+01  1.13901671e+01  1.18604545e+01
  1.18604545e+01  1.19070376e+01  1.23998845e+01  1.23999610e+01
  1.26162756e+01  1.26162756e+01  1.28643975e+01  3.20372020e+01]
nelec by numeric integration = 9.999999766254671
    CPU time for vxc     46.20 sec, wall time      0.37 sec
    CPU time for df-vj      8.44 sec, wall time      0.07 sec
E1 = -48.87035233577686  Ecoul = 25.034115900769365  Exc = -4.422358279262368
cycle= 5 E= -19.8478310969983  delta_E= -0.003  |g|= 0.128  |ddm|= 0.0923
    CPU time for cycle= 5    113.47 sec, wall time      0.90 sec
  HOMO = -0.271896992226323  LUMO = -0.10557956128664
  mo_energy =
[-8.60348307e-01 -3.94492151e-01 -2.95347928e-01 -2.95347928e-01
 -2.71896992e-01 -1.05579561e-01 -1.05579561e-01 -4.60434668e-03
  1.18952911e-01  1.35467756e-01  1.35467760e-01  1.68163884e-01
  1.68163884e-01  1.82508521e-01  2.25063307e-01  2.25063307e-01
  3.22063835e-01  3.98315392e-01  3.98315392e-01  4.22056634e-01
  5.71314927e-01  5.71315032e-01  5.93769399e-01  5.93769399e-01
  6.99625752e-01  7.00926386e-01  7.00926435e-01  7.18956291e-01
  7.18956291e-01  7.66016882e-01  7.66016882e-01  9.39668633e-01
  1.03036163e+00  1.09803565e+00  1.10150459e+00  1.10150459e+00
  1.19908419e+00  1.19908433e+00  1.27236392e+00  1.50113502e+00
  1.50113502e+00  1.67072881e+00  1.89069304e+00  1.89069304e+00
  1.91053175e+00  1.91053224e+00  1.91664691e+00  1.91664691e+00
  1.93703044e+00  1.93703063e+00  1.96628223e+00  1.96628223e+00
  2.06791613e+00  2.06791613e+00  2.07373387e+00  2.10418392e+00
  2.10418497e+00  2.22948747e+00  2.23576453e+00  2.23576453e+00
  2.35938765e+00  2.35938862e+00  2.76812279e+00  2.82845557e+00
  2.82845557e+00  2.98211418e+00  3.19860016e+00  3.19860016e+00
  3.59739237e+00  3.59739269e+00  3.99327499e+00  3.99566927e+00
  3.99567329e+00  4.04750466e+00  4.04750466e+00  4.39256148e+00
  4.39256148e+00  4.53004278e+00  4.82676438e+00  5.06684768e+00
  5.06684768e+00  6.22043079e+00  6.83622193e+00  6.83622193e+00
  7.71017150e+00  8.34363372e+00  8.34373410e+00  8.36522632e+00
  8.36522632e+00  8.46537168e+00  8.46537343e+00  8.59424749e+00
  8.59424749e+00  8.65487575e+00  9.91133841e+00  1.11613854e+01
  1.11613854e+01  1.13840003e+01  1.13840093e+01  1.18543390e+01
  1.18543390e+01  1.19007823e+01  1.23933041e+01  1.23933807e+01
  1.26094282e+01  1.26094282e+01  1.28577375e+01  3.20300758e+01]
nelec by numeric integration = 9.999999765221574
    CPU time for vxc     38.91 sec, wall time      0.31 sec
    CPU time for df-vj      8.00 sec, wall time      0.06 sec
E1 = -48.980564768273894  Ecoul = 25.161717676585475  Exc = -4.442128668955661
cycle= 6 E= -19.8502121433726  delta_E= -0.00238  |g|= 0.0775  |ddm|= 0.0517
    CPU time for cycle= 6    101.64 sec, wall time      0.80 sec
  HOMO = -0.275219354850867  LUMO = -0.106562202059068
  mo_energy =
[-8.67936532e-01 -3.97002574e-01 -3.01046873e-01 -3.01046873e-01
 -2.75219355e-01 -1.06562202e-01 -1.06562202e-01 -5.22126547e-03
  1.19371934e-01  1.35135213e-01  1.35135218e-01  1.67908627e-01
  1.67908627e-01  1.81370129e-01  2.24063316e-01  2.24063316e-01
  3.20819050e-01  3.96033691e-01  3.96033691e-01  4.20576836e-01
  5.70514040e-01  5.70514141e-01  5.93489594e-01  5.93489594e-01
  6.99523809e-01  7.00426633e-01  7.00426683e-01  7.17415101e-01
  7.17415101e-01  7.66025973e-01  7.66025973e-01  9.35860706e-01
  1.02783008e+00  1.09846663e+00  1.10085055e+00  1.10085055e+00
  1.19596382e+00  1.19596392e+00  1.27030374e+00  1.49767703e+00
  1.49767703e+00  1.66849310e+00  1.88989271e+00  1.88989271e+00
  1.91007705e+00  1.91007754e+00  1.91226811e+00  1.91226811e+00
  1.93580627e+00  1.93580645e+00  1.96565531e+00  1.96565531e+00
  2.06762767e+00  2.06762767e+00  2.07377613e+00  2.10351683e+00
  2.10351790e+00  2.22642993e+00  2.23451659e+00  2.23451659e+00
  2.35866121e+00  2.35866217e+00  2.76597135e+00  2.82671403e+00
  2.82671403e+00  2.97888564e+00  3.19416276e+00  3.19416276e+00
  3.59217468e+00  3.59217482e+00  3.98651282e+00  3.98992617e+00
  3.98993018e+00  4.04168923e+00  4.04168923e+00  4.38832324e+00
  4.38832324e+00  4.52602179e+00  4.82200215e+00  5.06501620e+00
  5.06501620e+00  6.21676544e+00  6.82769392e+00  6.82769392e+00
  7.70164545e+00  8.33734344e+00  8.33744345e+00  8.35869417e+00
  8.35869417e+00  8.45853761e+00  8.45853930e+00  8.58703731e+00
  8.58703731e+00  8.64760349e+00  9.90943007e+00  1.11529520e+01
  1.11529520e+01  1.13753308e+01  1.13753398e+01  1.18455511e+01
  1.18455511e+01  1.18922799e+01  1.23837202e+01  1.23837967e+01
  1.25998939e+01  1.25998939e+01  1.28480215e+01  3.20181026e+01]
nelec by numeric integration = 9.999999763709841
    CPU time for vxc     29.08 sec, wall time      0.23 sec
    CPU time for df-vj      7.07 sec, wall time      0.05 sec
E1 = -49.129768817865646  Ecoul = 25.336107094930238  Exc = -4.468631549325752
cycle= 7 E= -19.8515296549896  delta_E= -0.00132  |g|= 0.0105  |ddm|= 0.0691
    CPU time for cycle= 7     78.70 sec, wall time      0.62 sec
  HOMO = -0.274915141965107  LUMO = -0.106053686343509
  mo_energy =
[-8.68095221e-01 -3.96637846e-01 -3.01203877e-01 -3.01203877e-01
 -2.74915142e-01 -1.06053686e-01 -1.06053686e-01 -4.74098808e-03
  1.19922592e-01  1.35600935e-01  1.35600940e-01  1.68315961e-01
  1.68315961e-01  1.81480661e-01  2.24472502e-01  2.24472502e-01
  3.21015220e-01  3.95894061e-01  3.95894061e-01  4.20912637e-01
  5.70897106e-01  5.70897209e-01  5.93926863e-01  5.93926863e-01
  6.99974598e-01  7.01164852e-01  7.01164902e-01  7.18038289e-01
  7.18038289e-01  7.66542101e-01  7.66542101e-01  9.35930495e-01
  1.02805577e+00  1.09942348e+00  1.10160575e+00  1.10160575e+00
  1.19586951e+00  1.19586962e+00  1.27074708e+00  1.49751817e+00
  1.49751817e+00  1.66874767e+00  1.89054778e+00  1.89054778e+00
  1.91073851e+00  1.91073899e+00  1.91231233e+00  1.91231233e+00
  1.93661100e+00  1.93661118e+00  1.96647917e+00  1.96647917e+00
  2.06845835e+00  2.06845835e+00  2.07459555e+00  2.10416180e+00
  2.10416286e+00  2.22714416e+00  2.23538734e+00  2.23538734e+00
  2.35967843e+00  2.35967939e+00  2.76621469e+00  2.82733224e+00
  2.82733224e+00  2.97926794e+00  3.19390527e+00  3.19390527e+00
  3.59207487e+00  3.59207508e+00  3.98640061e+00  3.98949276e+00
  3.98949676e+00  4.04174918e+00  4.04174918e+00  4.38828116e+00
  4.38828116e+00  4.52603423e+00  4.82243868e+00  5.06593288e+00
  5.06593288e+00  6.21729702e+00  6.82717281e+00  6.82717281e+00
  7.70124693e+00  8.33692042e+00  8.33702055e+00  8.35834385e+00
  8.35834385e+00  8.45827455e+00  8.45827626e+00  8.58686504e+00
  8.58686504e+00  8.64746222e+00  9.91067205e+00  1.11523819e+01
  1.11523819e+01  1.13748318e+01  1.13748408e+01  1.18451209e+01
  1.18451209e+01  1.18918737e+01  1.23830756e+01  1.23831521e+01
  1.25992994e+01  1.25992994e+01  1.28475153e+01  3.20173675e+01]
nelec by numeric integration = 9.999999763570287
    CPU time for vxc     33.64 sec, wall time      0.26 sec
    CPU time for df-vj      8.57 sec, wall time      0.07 sec
E1 = -49.1477442674035  Ecoul = 25.357109296947772  Exc = -4.471685052963024
cycle= 8 E= -19.8515564061472  delta_E= -2.68e-05  |g|= 0.001  |ddm|= 0.01
    CPU time for cycle= 8     93.98 sec, wall time      0.74 sec
  HOMO = -0.275000557325662  LUMO = -0.106103304609451
  mo_energy =
[-8.68231987e-01 -3.96719518e-01 -3.01317899e-01 -3.01317899e-01
 -2.75000557e-01 -1.06103305e-01 -1.06103305e-01 -4.77290085e-03
  1.19899321e-01  1.35570630e-01  1.35570634e-01  1.68288375e-01
  1.68288375e-01  1.81444250e-01  2.24430965e-01  2.24430965e-01
  3.20977242e-01  3.95847503e-01  3.95847503e-01  4.20870913e-01
  5.70862023e-01  5.70862127e-01  5.93899127e-01  5.93899127e-01
  6.99944597e-01  7.01121916e-01  7.01121966e-01  7.17981732e-01
  7.17981732e-01  7.66512841e-01  7.66512841e-01  9.35846305e-01
  1.02799314e+00  1.09938674e+00  1.10155976e+00  1.10155976e+00
  1.19579699e+00  1.19579712e+00  1.27068728e+00  1.49744095e+00
  1.49744095e+00  1.66868322e+00  1.89050507e+00  1.89050507e+00
  1.91070290e+00  1.91070339e+00  1.91221800e+00  1.91221800e+00
  1.93655572e+00  1.93655590e+00  1.96643294e+00  1.96643294e+00
  2.06841009e+00  2.06841009e+00  2.07455357e+00  2.10411617e+00
  2.10411724e+00  2.22706585e+00  2.23533027e+00  2.23533027e+00
  2.35961856e+00  2.35961952e+00  2.76614572e+00  2.82726762e+00
  2.82726762e+00  2.97918586e+00  3.19380642e+00  3.19380642e+00
  3.59196864e+00  3.59196891e+00  3.98627493e+00  3.98936479e+00
  3.98936871e+00  4.04163278e+00  4.04163278e+00  4.38817662e+00
  4.38817662e+00  4.52593453e+00  4.82232910e+00  5.06585143e+00
  5.06585143e+00  6.21719723e+00  6.82702034e+00  6.82702034e+00
  7.70109472e+00  8.33678267e+00  8.33688286e+00  8.35820772e+00
  8.35820772e+00  8.45813977e+00  8.45814127e+00  8.58673024e+00
  8.58673024e+00  8.64732696e+00  9.91058234e+00  1.11522131e+01
  1.11522131e+01  1.13746691e+01  1.13746781e+01  1.18449637e+01
  1.18449637e+01  1.18917192e+01  1.23828995e+01  1.23829760e+01
  1.25991274e+01  1.25991274e+01  1.28473472e+01  3.20171771e+01]
nelec by numeric integration = 9.999999763543311
    CPU time for vxc     35.74 sec, wall time      0.29 sec
    CPU time for df-vj     10.25 sec, wall time      0.08 sec
E1 = -49.15004305055672  Ecoul = 25.359837244310643  Exc = -4.47211443511931
cycle= 9 E= -19.8515566240939  delta_E= -2.18e-07  |g|= 2.65e-05  |ddm|= 0.00111
    CPU time for cycle= 9     94.62 sec, wall time      0.75 sec
  HOMO = -0.274996304469199  LUMO = -0.106099974640028
  mo_energy =
[-8.68225029e-01 -3.96714392e-01 -3.01311591e-01 -3.01311591e-01
 -2.74996304e-01 -1.06099975e-01 -1.06099975e-01 -4.77026695e-03
  1.19900861e-01  1.35573478e-01  1.35573482e-01  1.68290670e-01
  1.68290670e-01  1.81446282e-01  2.24433979e-01  2.24433979e-01
  3.20979925e-01  3.95850132e-01  3.95850132e-01  4.20873761e-01
  5.70864949e-01  5.70865054e-01  5.93901851e-01  5.93901851e-01
  6.99946490e-01  7.01126417e-01  7.01126467e-01  7.17986432e-01
  7.17986432e-01  7.66514950e-01  7.66514950e-01  9.35851918e-01
  1.02799719e+00  1.09938966e+00  1.10156441e+00  1.10156441e+00
  1.19580127e+00  1.19580141e+00  1.27069140e+00  1.49744476e+00
  1.49744476e+00  1.66868750e+00  1.89050942e+00  1.89050942e+00
  1.91070743e+00  1.91070791e+00  1.91222362e+00  1.91222362e+00
  1.93656110e+00  1.93656128e+00  1.96643831e+00  1.96643831e+00
  2.06841366e+00  2.06841366e+00  2.07455659e+00  2.10411991e+00
  2.10412097e+00  2.22707225e+00  2.23533580e+00  2.23533580e+00
  2.35962455e+00  2.35962551e+00  2.76614977e+00  2.82727249e+00
  2.82727249e+00  2.97919129e+00  3.19381171e+00  3.19381171e+00
  3.59197440e+00  3.59197468e+00  3.98628141e+00  3.98937064e+00
  3.98937456e+00  4.04163911e+00  4.04163911e+00  4.38818214e+00
  4.38818214e+00  4.52593961e+00  4.82233625e+00  5.06585807e+00
  5.06585807e+00  6.21720362e+00  6.82702742e+00  6.82702742e+00
  7.70110151e+00  8.33678899e+00  8.33688918e+00  8.35821401e+00
  8.35821401e+00  8.45814612e+00  8.45814760e+00  8.58673670e+00
  8.58673670e+00  8.64733352e+00  9.91059036e+00  1.11522204e+01
  1.11522204e+01  1.13746760e+01  1.13746851e+01  1.18449704e+01
  1.18449704e+01  1.18917259e+01  1.23829073e+01  1.23829838e+01
  1.25991349e+01  1.25991349e+01  1.28473546e+01  3.20171855e+01]
nelec by numeric integration = 9.999999763544205
    CPU time for vxc     42.47 sec, wall time      0.34 sec
    CPU time for df-vj      8.47 sec, wall time      0.07 sec
E1 = -49.14997714620508  Ecoul = 25.359759917097243  Exc = -4.472103012459832
cycle= 10 E= -19.8515566242961  delta_E= -2.02e-10  |g|= 2.58e-06  |ddm|= 5.27e-05
    CPU time for cycle= 10     81.66 sec, wall time      0.64 sec
  HOMO = -0.274996091262788  LUMO = -0.106100269289233
  mo_energy =
[-8.68224130e-01 -3.96714336e-01 -3.01310870e-01 -3.01310870e-01
 -2.74996091e-01 -1.06100269e-01 -1.06100269e-01 -4.77044531e-03
  1.19900503e-01  1.35573077e-01  1.35573081e-01  1.68290371e-01
  1.68290371e-01  1.81446455e-01  2.24433819e-01  2.24433819e-01
  3.20980055e-01  3.95850633e-01  3.95850633e-01  4.20873717e-01
  5.70864767e-01  5.70864872e-01  5.93901441e-01  5.93901441e-01
  6.99946348e-01  7.01125808e-01  7.01125858e-01  7.17986131e-01
  7.17986131e-01  7.66514668e-01  7.66514668e-01  9.35852316e-01
  1.02799737e+00  1.09938918e+00  1.10156385e+00  1.10156385e+00
  1.19580191e+00  1.19580204e+00  1.27069133e+00  1.49744552e+00
  1.49744552e+00  1.66868772e+00  1.89050896e+00  1.89050896e+00
  1.91070681e+00  1.91070730e+00  1.91222405e+00  1.91222405e+00
  1.93656059e+00  1.93656078e+00  1.96643759e+00  1.96643759e+00
  2.06841329e+00  2.06841329e+00  2.07455622e+00  2.10411960e+00
  2.10412067e+00  2.22707201e+00  2.23533526e+00  2.23533526e+00
  2.35962377e+00  2.35962473e+00  2.76615006e+00  2.82727239e+00
  2.82727239e+00  2.97919144e+00  3.19381269e+00  3.19381269e+00
  3.59197521e+00  3.59197549e+00  3.98628224e+00  3.98937178e+00
  3.98937569e+00  4.04163972e+00  4.04163972e+00  4.38818277e+00
  4.38818277e+00  4.52594024e+00  4.82233640e+00  5.06585758e+00
  5.06585758e+00  6.21720368e+00  6.82702845e+00  6.82702845e+00
  7.70110242e+00  8.33679028e+00  8.33689047e+00  8.35821521e+00
  8.35821521e+00  8.45814723e+00  8.45814872e+00  8.58673774e+00
  8.58673774e+00  8.64733452e+00  9.91058957e+00  1.11522217e+01
  1.11522217e+01  1.13746773e+01  1.13746863e+01  1.18449716e+01
  1.18449716e+01  1.18917270e+01  1.23829085e+01  1.23829850e+01
  1.25991360e+01  1.25991360e+01  1.28473556e+01  3.20171864e+01]
nelec by numeric integration = 9.999999763544423
    CPU time for vxc     40.47 sec, wall time      0.32 sec
    CPU time for df-vj      7.49 sec, wall time      0.06 sec
E1 = -49.14995005623595  Ecoul = 25.359728029743227  Exc = -4.472098215049693
Extra cycle  E= -19.8515566242709  delta_E= 2.53e-11  |g|= 1.1e-05  |ddm|= 1.3e-05
    CPU time for scf_cycle   1117.59 sec, wall time      9.02 sec
    CPU time for SCF   1118.02 sec, wall time      9.02 sec
converged SCF energy = -19.8515566242709
