#INFO: **** input file is /home/nkousuke/lustre/toBeSync/turboRVB/05turbo-genius-development/turbogenius_paper/04data/sanity_checks/03pyscf_HF_turbo_VMC_via_trexio/00open_boundary/results/NH3/pyscf-HF-workflow/run.py ****

from pyscf_wrapper import Pyscf_wrapper

# input variables
pyscf_chkfile="pyscf.chk"
structure_file="NH3.xyz"

# input variables
omp_num_threads=128
charge=0
spin=0
basis="ccecp-ccpvqz"
ecp="ccecp"
scf_method="HF"
dft_xc="NA"
solver_newton=False
MP2_flag=False
CCSD_flag=False
pyscf_output="out.pyscf"
twist_average=False
exp_to_discard=0.0
kpt=[0.0, 0.0, 0.0]
kpt_grid=[1, 1, 1]
smearing_method="fermi"
smearing_sigma=0.0

pyscf_calc=Pyscf_wrapper(
                        structure_file=structure_file,
                        chkfile=pyscf_chkfile,
                        )

pyscf_calc.run_pyscf(
                  omp_num_threads=omp_num_threads,
                  charge=charge,
                  spin=spin,
                  basis=basis,
                  ecp=ecp,
                  scf_method=scf_method,
                  dft_xc=dft_xc,
                  solver_newton=solver_newton,
                  MP2_flag=MP2_flag,
                  CCSD_flag=CCSD_flag,
                  pyscf_output=pyscf_output,
                  twist_average=twist_average,
                  exp_to_discard=exp_to_discard,
                  kpt=kpt,
                  kpt_grid=kpt_grid,
                  smearing_method=smearing_method,
                  smearing_sigma=smearing_sigma
                  )
                #INFO: ******************** input file end ********************


System: uname_result(system='Linux', node='spcc-238', release='5.4.0-66-generic', version='#74-Ubuntu SMP Wed Jan 27 22:54:38 UTC 2021', machine='x86_64', processor='x86_64')  Threads 128
Python 3.7.3 (default, Mar 27 2019, 22:11:17) 
[GCC 7.3.0]
numpy 1.20.1  scipy 1.7.3
Date: Mon Dec 19 18:08:39 2022
PySCF version 2.0.1
PySCF path  /home/nkousuke/application/anaconda3/lib/python3.7/site-packages/pyscf

[CONFIG] conf_file /home/nkousuke/.pyscf_conf.py
[INPUT] verbose = 5
[INPUT] max_memory = 506327.76953125 
[INPUT] num. atoms = 4
[INPUT] num. electrons = 8
[INPUT] charge = 0
[INPUT] spin (= nelec alpha-beta = 2S) = 0
[INPUT] symmetry False subgroup None
[INPUT] Mole.unit = A
[INPUT]  1 N      0.000000000000   0.000000000000   0.113760000000 AA    0.000000000000   0.000000000000   0.214975243931 Bohr
[INPUT]  2 H      0.000000000000   0.937390000000  -0.265460000000 AA    0.000000000000   1.771410371906  -0.501646697027 Bohr
[INPUT]  3 H      0.811810000000  -0.468700000000  -0.265460000000 AA    1.534098565183  -0.885714634584  -0.501646697027 Bohr
[INPUT]  4 H     -0.811810000000  -0.468700000000  -0.265460000000 AA   -1.534098565183  -0.885714634584  -0.501646697027 Bohr
[INPUT] ---------------- BASIS SET ---------------- 
[INPUT] l, kappa, [nprim/nctr], expnt,             c_1 c_2 ...
[INPUT] H
[INPUT] 0    0    [8    /1   ]  23.843185         0.0041149
                                10.212443         0.0104644
                                4.374164          0.0280111
                                1.873529          0.0758862
                                0.802465          0.1821062
                                0.343709          0.3485214
                                0.147217          0.3782313
                                0.063055          0.1164241
[INPUT] 0    0    [1    /1   ]  0.081856             1
[INPUT] 0    0    [1    /1   ]  0.233254             1
[INPUT] 0    0    [1    /1   ]  0.664673             1
[INPUT] 1    0    [1    /1   ]  0.284469             1
[INPUT] 1    0    [1    /1   ]  0.847159             1
[INPUT] 1    0    [1    /1   ]  2.522868             1
[INPUT] 2    0    [1    /1   ]  0.665279             1
[INPUT] 2    0    [1    /1   ]  2.048739             1
[INPUT] 3    0    [1    /1   ]  1.42146              1
[INPUT] N
[INPUT] 0    0    [9    /1   ]  42.693822         -0.0009357
                                19.963207         0.0063295
                                9.3345971         0.0105038
                                4.9278187         -0.1653735
                                2.04092           -0.0005352
                                0.96708           0.2452063
                                0.476131          0.4582128
                                0.211443          0.3641224
                                0.098869          0.0620406
[INPUT] 0    0    [1    /1   ]  1.625001             1
[INPUT] 0    0    [1    /1   ]  0.310826             1
[INPUT] 0    0    [1    /1   ]  0.135764             1
[INPUT] 1    0    [9    /1   ]  18.925871         0.0073505
                                9.225603          0.0292844
                                4.581431          0.0652168
                                2.300164          0.1405153
                                1.154825          0.2328188
                                0.582039          0.2989556
                                0.290535          0.2802507
                                0.145867          0.1527995
                                0.073234          0.0355475
[INPUT] 1    0    [1    /1   ]  1.02075              1
[INPUT] 1    0    [1    /1   ]  0.413103             1
[INPUT] 1    0    [1    /1   ]  0.140736             1
[INPUT] 2    0    [1    /1   ]  3.028459             1
[INPUT] 2    0    [1    /1   ]  1.009895             1
[INPUT] 2    0    [1    /1   ]  0.346233             1
[INPUT] 3    0    [1    /1   ]  2.024747             1
[INPUT] 3    0    [1    /1   ]  0.691129             1
[INPUT] 4    0    [1    /1   ]  1.357512             1

nuclear repulsion = 8.8275449588313
number of shells = 44
number of NR pGTOs = 197
number of NR cGTOs = 144
basis = ccecp-ccpvqz
ecp = ccecp
CPU time:         5.75


******** <class 'pyscf.scf.hf.RHF'> ********
method = RHF
initial guess = minao
damping factor = 0
level_shift factor = 0
DIIS = <class 'pyscf.scf.diis.CDIIS'>
diis_start_cycle = 1
diis_space = 8
SCF conv_tol = 1e-09
SCF conv_tol_grad = None
SCF max_cycles = 200
direct_scf = True
direct_scf_tol = 1e-13
chkfile to save SCF result = pyscf.chk
max_memory 506327 MB (current use 106 MB)
Set gradient conv threshold to 3.16228e-05
E1 = -33.90648207857741  E_coul = 13.949201587936725
init E= -11.1297355318094
cond(S) = 52723.23194414869
    CPU time for initialize scf    133.23 sec, wall time      1.25 sec
  HOMO = -0.355575023665969  LUMO = 0.0630125296568003
  mo_energy =
[-1.44915837 -0.60754124 -0.60753894 -0.35557502  0.06301253  0.15343682
  0.15343744  0.33027476  0.33027574  0.37672495  0.42736926  0.49083176
  0.49083341  0.49269898  0.53927532  0.53927535  0.8142595   0.85469467
  0.89998022  0.89998064  1.03538631  1.03538711  1.08772064  1.12786854
  1.12786885  1.20001119  1.25209084  1.25209128  1.41946629  1.50307675
  1.50307852  1.97480613  2.18952264  2.1895246   2.19541942  2.30044877
  2.30044902  2.3248423   2.36643821  2.45422261  2.45422298  2.49967615
  2.49967755  2.51513596  2.56926648  2.57727165  2.57727476  2.65620577
  2.65620733  2.75799869  2.81779396  2.81779665  3.09685049  3.09685321
  3.10050251  3.24984442  3.43499699  3.4349998   3.53399329  3.69940479
  3.69940715  3.75015461  3.84899935  3.84900089  4.09134018  4.21841389
  4.37571443  4.37571912  4.49127391  4.844319    4.84432041  6.0712007
  6.0712052   6.16408273  6.31946418  6.31946813  6.35415535  6.35415812
  6.38484483  6.60206437  6.76711484  6.76711523  6.80904883  6.80905047
  6.81251719  7.03094278  7.03798218  7.03798451  7.30085456  7.39416391
  7.39418214  7.43518895  7.63225576  7.63226354  7.67084206  7.79560928
  7.79561705  7.91528021  7.96974527  8.03523811  8.03523928  8.12450352
  8.16497657  8.20513308  8.20513325  8.28960402  8.31625032  8.31625308
  8.42741676  8.42741722  8.46197127  8.64754562  8.64754751  8.73793485
  8.86603992  8.87887054  8.87887532  9.17033063  9.18848953  9.18849513
  9.34431101  9.52090104  9.52090117  9.82336829  9.82337276 10.09217086
 10.09217362 10.22014716 10.39648427 10.62247321 10.63729751 10.63730125
 11.75338078 11.84053143 11.84053207 12.33081371 12.33083028 12.34143057
 12.37186207 12.64684066 12.64687417 14.72979634 14.72982939 20.07542975]
E1 = -35.15255844594494  E_coul = 14.88427625665494
cycle= 1 E= -11.4407372304587  delta_E= -0.311  |g|= 0.295  |ddm|= 3.28
    CPU time for cycle= 1     38.94 sec, wall time      0.34 sec
  HOMO = -0.384540848832452  LUMO = 0.100668024780109
  mo_energy =
[-1.1145856  -0.6024858  -0.60248396 -0.38454085  0.10066802  0.16926967
  0.16926998  0.37371683  0.37371749  0.4138253   0.49783391  0.54149083
  0.54149123  0.54703721  0.58447502  0.58447643  0.84146172  0.85669566
  0.9150875   0.91508811  1.0814205   1.08142207  1.13161069  1.16280173
  1.16280205  1.24726992  1.3156168   1.31561722  1.467103    1.58091742
  1.58091965  2.09203563  2.23229641  2.23229826  2.29494031  2.31567491
  2.31567504  2.32843211  2.40497594  2.49976064  2.49976113  2.53328211
  2.53966063  2.53966308  2.60403528  2.60403782  2.62565366  2.71809783
  2.71809952  2.84182303  2.89569417  2.89569625  3.15913503  3.15913788
  3.19412703  3.25812189  3.53817981  3.53818418  3.60940292  3.77462061
  3.77462183  3.81750097  3.94222871  3.94223029  4.18743013  4.3230631
  4.47335171  4.47335678  4.59253749  4.96295519  4.96295738  6.14452575
  6.1445284   6.23689539  6.3461708   6.34617617  6.41659881  6.42443805
  6.42444195  6.76737528  6.85953848  6.85953851  6.89954137  6.89954176
  6.90438931  7.09092888  7.15139092  7.15139447  7.32801608  7.49930266
  7.49931964  7.55180644  7.66210458  7.66211278  7.7487725   7.86026747
  7.86027379  7.98986366  8.02474106  8.05638355  8.05638419  8.18675657
  8.2246233   8.22820605  8.22820677  8.35923335  8.35923626  8.40042215
  8.48310063  8.48310148  8.49319872  8.75193917  8.75193922  8.83807646
  8.94111074  8.9720402   8.97204612  9.26741868  9.30901727  9.30902172
  9.52491354  9.61602417  9.61602596  9.97153013  9.97153159 10.24788862
 10.24789113 10.34163756 10.51579866 10.76672739 10.76673289 10.7932568
 11.8876809  11.98199029 11.98199182 12.50547274 12.50548877 12.50614645
 12.51452453 12.83428691 12.83432248 14.88386973 14.88390334 20.34007047]
E1 = -34.733472194633606  E_coul = 14.448443215351706
cycle= 2 E= -11.4574840204506  delta_E= -0.0167  |g|= 0.125  |ddm|= 0.632
    CPU time for cycle= 2     37.60 sec, wall time      0.30 sec
  HOMO = -0.43581356226152  LUMO = 0.0993746389136266
  mo_energy =
[-1.15473994 -0.63770235 -0.63770015 -0.43581356  0.09937464  0.16825002
  0.16825025  0.36558378  0.36558448  0.40856109  0.49049703  0.52891111
  0.53550657  0.5355072   0.57267941  0.57268051  0.8354847   0.85733582
  0.91358903  0.91358957  1.06786198  1.06786329  1.12213222  1.15333901
  1.15333935  1.2373286   1.29632178  1.29632221  1.46075399  1.56111976
  1.56112186  2.05827228  2.22413766  2.22413952  2.26050807  2.31697734
  2.31697752  2.33322142  2.39590241  2.49119745  2.49119792  2.53100245
  2.53100446  2.53255078  2.59840929  2.59841205  2.61032949  2.6973434
  2.69734502  2.81852913  2.87517629  2.87517863  3.13954962  3.13955248
  3.1659883   3.25856622  3.50778242  3.50778622  3.59039907  3.75103121
  3.75103282  3.80145763  3.91512039  3.91512191  4.15786858  4.29106372
  4.44618611  4.44619101  4.5615975   4.9252605   4.92526246  6.12931949
  6.12932288  6.22209696  6.34808112  6.34808593  6.4111482   6.41115167
  6.41737485  6.70770541  6.8354943   6.83549445  6.87597892  6.87597979
  6.88458758  7.07835618  7.11830108  7.11830451  7.32709066  7.46816549
  7.46818321  7.51951535  7.65813384  7.65814175  7.73257507  7.84410598
  7.84411305  7.97154001  8.01537528  8.05744082  8.05744158  8.17532138
  8.20915289  8.22284098  8.22284137  8.35271728  8.35272008  8.36500713
  8.47698502  8.47698543  8.48975301  8.72258244  8.72258325  8.80919867
  8.92505036  8.94965612  8.94966155  9.2499953   9.27310086  9.273106
  9.45652086  9.59218731  9.59218824  9.92174788  9.9217508  10.19504383
 10.19504641 10.30110172 10.48119686 10.72815166 10.72875676 10.72876155
 11.84615852 11.93470085 11.93470178 12.44035063 12.44036696 12.45275766
 12.46313706 12.76273258 12.76276754 14.82918085 14.82921451 20.22126416]
E1 = -34.94851112179096  E_coul = 14.6602710336742
cycle= 3 E= -11.4606951292855  delta_E= -0.00321  |g|= 0.0258  |ddm|= 0.216
    CPU time for cycle= 3     37.52 sec, wall time      0.30 sec
  HOMO = -0.427058681264804  LUMO = 0.101260986389937
  mo_energy =
[-1.14240524 -0.62803168 -0.62802945 -0.42705868  0.10126099  0.16975902
  0.16975919  0.36828524  0.36828592  0.41172764  0.49600094  0.53081669
  0.539514    0.53951458  0.57831159  0.5783127   0.83806812  0.85989568
  0.91618474  0.91618525  1.07238733  1.07238861  1.12755447  1.15619712
  1.15619748  1.24239284  1.30090327  1.3009037   1.46757877  1.56791008
  1.56791219  2.06357896  2.23049665  2.23049851  2.26688769  2.32237351
  2.3223737   2.33839975  2.40188506  2.4973674   2.49736782  2.53692021
  2.53692214  2.5379933   2.60350798  2.60351072  2.61881292  2.70419579
  2.70419743  2.82639717  2.88186458  2.88186691  3.14605861  3.14606143
  3.17311248  3.26421823  3.51482593  3.51482975  3.59779123  3.75849915
  3.75850071  3.81014833  3.9225653   3.92256678  4.16347261  4.30028839
  4.45692254  4.45692742  4.57056263  4.93702277  4.93702473  6.13805499
  6.13805838  6.2313139   6.35623683  6.35624156  6.42228318  6.42228669
  6.42589598  6.7221713   6.84821111  6.84821119  6.88570356  6.88570442
  6.8987895   7.08902643  7.13056043  7.13056388  7.33577366  7.48035696
  7.48037462  7.53045454  7.66740359  7.66741153  7.74462719  7.85406114
  7.85406827  7.98285996  8.02608039  8.06598778  8.06598853  8.18517568
  8.21980458  8.23189498  8.23189538  8.3627865   8.36278926  8.37778245
  8.48851159  8.48851206  8.49810967  8.73599153  8.73599228  8.82134386
  8.93694405  8.96218703  8.96219245  9.26383548  9.28512291  9.28512803
  9.46894534  9.60487432  9.60487528  9.93650658  9.93650943 10.20951363
 10.20951627 10.31305618 10.49586423 10.74426452 10.74426899 10.74431881
 11.86252546 11.95087714 11.95087805 12.45604964 12.45606603 12.46965011
 12.47923084 12.78055636 12.78059132 14.84689435 14.846928   20.24563705]
E1 = -34.91712915767653  E_coul = 14.628697707168108
cycle= 4 E= -11.4608864916771  delta_E= -0.000191  |g|= 0.00465  |ddm|= 0.046
    CPU time for cycle= 4     56.83 sec, wall time      0.44 sec
  HOMO = -0.427401973211055  LUMO = 0.101131259406907
  mo_energy =
[-1.14305244 -0.62876758 -0.62876532 -0.42740197  0.10113126  0.1696757
  0.16967586  0.36846282  0.3684635   0.41116861  0.49582163  0.53122365
  0.53954574  0.53954631  0.57807445  0.57807555  0.83804259  0.85981685
  0.91612639  0.9161269   1.07240487  1.07240614  1.12694928  1.15606873
  1.15606911  1.24189062  1.30097351  1.30097394  1.46734916  1.56779626
  1.56779835  2.06391627  2.23011178  2.23011365  2.26710898  2.32210602
  2.32210621  2.33814669  2.40187892  2.49737882  2.49737924  2.5369326
  2.53693452  2.53784153  2.60354639  2.60354912  2.61785704  2.7039101
  2.70391173  2.82611038  2.88175018  2.88175251  3.14594047  3.14594328
  3.17278492  3.26396003  3.51477393  3.51477774  3.59740852  3.75823137
  3.75823292  3.80998314  3.92267001  3.92267149  4.16375252  4.30004926
  4.45627993  4.45628481  4.57030528  4.93667587  4.93667783  6.13802267
  6.13802608  6.23111772  6.35605138  6.35605609  6.42173084  6.42173434
  6.42562703  6.72153572  6.84802761  6.84802769  6.88572138  6.88572224
  6.89802305  7.08925236  7.13038041  7.13038385  7.335727    7.48002439
  7.48004207  7.5303772   7.66767515  7.66768307  7.74417558  7.854113
  7.85412015  7.98264835  8.02604271  8.06629816  8.06629892  8.18556043
  8.21969557  8.2320736   8.23207399  8.36291475  8.36291751  8.37747309
  8.48845894  8.4884594   8.49846427  8.73549191  8.73549266  8.82108788
  8.93720426  8.96215162  8.96215701  9.2635694   9.2851563   9.28516141
  9.46870861  9.60486556  9.60486651  9.93570761  9.93571047 10.20904538
 10.20904802 10.31276252 10.49544555 10.74371825 10.74382565 10.74383065
 11.86175865 11.95016365 11.95016457 12.45524818 12.45526456 12.46897413
 12.47853115 12.77964218 12.77967714 14.8462261  14.84625976 20.24377562]
E1 = -34.92018256533006  E_coul = 14.631738331336825
cycle= 5 E= -11.4608992751619  delta_E= -1.28e-05  |g|= 0.000997  |ddm|= 0.0117
    CPU time for cycle= 5     38.38 sec, wall time      0.30 sec
  HOMO = -0.42757272998212  LUMO = 0.101099122355194
  mo_energy =
[-1.14309192 -0.62880959 -0.62880732 -0.42757273  0.10109912  0.16966534
  0.16966549  0.36843768  0.36843837  0.41110191  0.49575064  0.53127172
  0.5395238   0.53952437  0.57804594  0.57804704  0.83799788  0.85975581
  0.91610038  0.91610088  1.07236319  1.07236447  1.12688668  1.15603421
  1.15603459  1.24188868  1.30093769  1.30093812  1.46728215  1.56774868
  1.56775077  2.06388578  2.23006369  2.23006556  2.26699781  2.32206218
  2.32206237  2.33809288  2.40177322  2.49734429  2.49734471  2.53688838
  2.53689029  2.5378137   2.60348467  2.60348741  2.61781342  2.70383817
  2.70383981  2.8261109   2.88170738  2.88170971  3.14585147  3.14585428
  3.17270126  3.26390452  3.51469907  3.51470289  3.59736824  3.7581502
  3.75815175  3.80994783  3.92259417  3.92259565  4.16362297  4.29998366
  4.45626189  4.45626676  4.57024056  4.93657753  4.93657949  6.13794446
  6.13794788  6.23105645  6.35599386  6.35599856  6.4216906   6.42169411
  6.42556435  6.7214535   6.847944    6.84794408  6.8856452   6.88564606
  6.89795899  7.08918546  7.13025441  7.13025784  7.3356751   7.47994448
  7.47996215  7.53030985  7.66762636  7.66763427  7.74414791  7.85401562
  7.85402277  7.98262399  8.02602593  8.06626924  8.06627001  8.1854604
  8.21966134  8.23201804  8.23201842  8.36285109  8.36285385  8.37737734
  8.48841302  8.48841348  8.49840064  8.73543661  8.73543737  8.82098041
  8.93708929  8.96208217  8.96208756  9.26356705  9.28504226  9.28504737
  9.46858198  9.60477957  9.60478052  9.93566588  9.93566874 10.2089413
 10.20894394 10.31258797 10.49538795 10.74353781 10.74374736 10.74375228
 11.86173677 11.95009121 11.95009213 12.45511409 12.45513048 12.46886595
 12.4784168  12.7794819  12.77951687 14.8461183  14.84615196 20.24365175]
E1 = -34.920320454213474  E_coul = 14.631875271889834
cycle= 6 E= -11.4609002234923  delta_E= -9.48e-07  |g|= 0.000253  |ddm|= 0.00325
    CPU time for cycle= 6     39.89 sec, wall time      0.31 sec
  HOMO = -0.427638330832564  LUMO = 0.101091001836379
  mo_energy =
[-1.14309467 -0.62879097 -0.6287887  -0.42763833  0.101091    0.16966795
  0.1696681   0.36843831  0.36843899  0.41107407  0.49574255  0.53128006
  0.53952254  0.53952311  0.57805541  0.57805651  0.83799154  0.85975273
  0.91609861  0.91609912  1.07236404  1.07236531  1.12686889  1.15603395
  1.15603433  1.24188311  1.30093754  1.30093797  1.46727983  1.56775494
  1.56775703  2.06387817  2.23006216  2.23006403  2.26698636  2.322059
  2.32205919  2.33808853  2.40176935  2.49734542  2.49734584  2.53688572
  2.53688763  2.53780716  2.6034827   2.60348544  2.61780628  2.70383787
  2.7038395   2.82611353  2.88170438  2.88170671  3.14584384  3.14584665
  3.17269243  3.2639046   3.51469115  3.51469497  3.59736959  3.75814943
  3.75815098  3.80995054  3.92259069  3.92259217  4.16361586  4.299979
  4.45626911  4.45627398  4.57024071  4.93657831  4.93658027  6.13793952
  6.13794294  6.23105169  6.35599253  6.35599723  6.42169729  6.4217008
  6.42556135  6.72144795  6.84794382  6.8479439   6.88564117  6.88564203
  6.89796626  7.08918041  7.13024447  7.1302479   7.33567178  7.47994156
  7.47995924  7.53030951  7.66762554  7.66763346  7.74415118  7.85400904
  7.85401619  7.98262507  8.0260294   8.06626733  8.0662681   8.18545636
  8.21966412  8.23201666  8.23201704  8.36284882  8.36285157  8.37737546
  8.48841171  8.48841217  8.49839727  8.73544188  8.73544263  8.82097636
  8.93708149  8.9620771   8.96208249  9.26358003  9.28503269  9.2850378
  9.46857004  9.60477835  9.60477931  9.935674    9.93567686 10.20893845
 10.20894109 10.31257184 10.49539031 10.74352241 10.74375049 10.7437554
 11.86174743 11.95009887 11.95009979 12.45510737 12.45512376 12.46886522
 12.47841514 12.77946984 12.77950481 14.84611647 14.84615012 20.24365433]
E1 = -34.92036798718995  E_coul = 14.631922734274749
cycle= 7 E= -11.4609002940839  delta_E= -7.06e-08  |g|= 4.29e-05  |ddm|= 0.00104
    CPU time for cycle= 7     57.36 sec, wall time      0.45 sec
  HOMO = -0.42763561462724  LUMO = 0.101091596225763
  mo_energy =
[-1.14308277 -0.62877831 -0.62877604 -0.42763561  0.1010916   0.1696692
  0.16966936  0.36844031  0.36844099  0.41107256  0.49574594  0.53128324
  0.53952478  0.53952535  0.57806015  0.57806124  0.83799308  0.85975487
  0.91610042  0.91610093  1.07236663  1.0723679   1.12687041  1.15603713
  1.15603751  1.24188626  1.30094185  1.30094227  1.46728285  1.5677603
  1.5677624   2.06388368  2.23006648  2.23006834  2.26699154  2.32206164
  2.32206184  2.33809033  2.40177319  2.49734919  2.49734961  2.53688837
  2.53689028  2.53780876  2.60348579  2.60348852  2.61781107  2.70384319
  2.70384482  2.82611929  2.88170934  2.88171167  3.14584839  3.1458512
  3.17269856  3.26390726  3.51469756  3.51470138  3.59737608  3.75815528
  3.75815683  3.80995568  3.92259649  3.92259798  4.16362199  4.29998561
  4.45627707  4.45628195  4.57024816  4.93658604  4.936588    6.13794473
  6.13794814  6.23105689  6.35599627  6.35600097  6.42170385  6.42170735
  6.42556511  6.72145863  6.84794979  6.84794987  6.88564696  6.88564782
  6.89797333  7.08918373  7.13025082  7.13025425  7.33567406  7.47994853
  7.47996621  7.53031738  7.66762792  7.66763584  7.74415669  7.85401298
  7.85402013  7.98263084  8.02603384  8.06626948  8.06627024  8.18546043
  8.21966932  8.23201926  8.23201964  8.36285219  8.36285494  8.37738306
  8.48841539  8.48841585  8.49840004  8.73544967  8.73545042  8.82098283
  8.93708527  8.96208232  8.96208771  9.26358772  9.28503981  9.28504492
  9.46858135  9.60478437  9.60478532  9.93568526  9.93568812 10.20894831
 10.20895095 10.31257846 10.49539854 10.74353162 10.7437589  10.74376381
 11.86175723 11.95010886 11.95010978 12.45511862 12.45513501 12.46887622
 12.47842286 12.77948046 12.77951542 14.84612568 14.84615934 20.24367302]
E1 = -34.92036007462595  E_coul = 14.631914820510891
cycle= 8 E= -11.4609002952837  delta_E= -1.2e-09  |g|= 5.2e-06  |ddm|= 0.000196
    CPU time for cycle= 8     47.33 sec, wall time      0.37 sec
  HOMO = -0.427634566977956  LUMO = 0.101092034353182
  mo_energy =
[-1.14308074 -0.6287773  -0.62877503 -0.42763457  0.10109203  0.16966946
  0.16966961  0.36844094  0.36844162  0.41107322  0.49574685  0.53128369
  0.53952537  0.53952594  0.57806109  0.57806219  0.83799365  0.85975531
  0.91610089  0.9161014   1.07236744  1.07236871  1.12687124  1.15603779
  1.15603817  1.24188716  1.30094267  1.3009431   1.46728385  1.56776144
  1.56776354  2.06388476  2.23006748  2.23006935  2.2669928   2.32206243
  2.32206263  2.33809097  2.40177415  2.49735011  2.49735053  2.5368892
  2.53689111  2.53780946  2.60348657  2.6034893   2.61781236  2.70384433
  2.70384597  2.82612054  2.88171049  2.88171282  3.14584952  3.14585233
  3.17269994  3.26390801  3.51469891  3.51470273  3.5973774   3.75815654
  3.75815809  3.80995691  3.92259774  3.92259923  4.16362322  4.29998706
  4.45627866  4.45628353  4.57024966  4.93658776  4.93658972  6.13794604
  6.13794946  6.23105823  6.35599735  6.35600206  6.42170537  6.42170887
  6.42556626  6.72146079  6.84795136  6.84795144  6.88564838  6.88564924
  6.89797508  7.08918488  7.13025254  7.13025597  7.33567499  7.47995022
  7.47996789  7.53031906  7.66762884  7.66763676  7.74415812  7.85401424
  7.85402139  7.98263229  8.02603513  8.06627037  8.06627113  8.18546168
  8.21967061  8.23202018  8.23202056  8.3628533   8.36285606  8.37738483
  8.48841662  8.48841708  8.498401    8.73545145  8.7354522   8.82098446
  8.93708661  8.96208382  8.96208921  9.26358941  9.28504151  9.28504662
  9.46858348  9.60478594  9.60478689  9.93568741  9.93569028 10.20895042
 10.20895306 10.31258024 10.49540039 10.74353398 10.74376088 10.74376579
 11.86175928 11.95011103 11.95011196 12.45512102 12.4551374  12.4688786
 12.47842493 12.779483   12.77951797 14.84612794 14.84616159 20.24367667]
E1 = -34.920355773900866  E_coul = 14.631910519776445
cycle= 9 E= -11.4609002952931  delta_E= -9.36e-12  |g|= 3.6e-07  |ddm|= 2.76e-05
    CPU time for cycle= 9     46.90 sec, wall time      0.37 sec
  HOMO = -0.427634512792248  LUMO = 0.10109202827489
  mo_energy =
[-1.14308067 -0.62877723 -0.62877496 -0.42763451  0.10109203  0.16966946
  0.16966961  0.36844091  0.36844159  0.4110732   0.49574683  0.53128366
  0.53952536  0.53952593  0.57806106  0.57806216  0.83799363  0.85975529
  0.91610088  0.91610139  1.0723674   1.07236868  1.12687123  1.15603777
  1.15603815  1.24188714  1.30094264  1.30094307  1.46728382  1.56776142
  1.56776351  2.06388472  2.23006746  2.23006932  2.26699278  2.32206241
  2.32206261  2.33809095  2.40177412  2.49735008  2.4973505   2.53688918
  2.53689109  2.53780945  2.60348655  2.60348928  2.61781235  2.70384431
  2.70384595  2.82612051  2.88171046  2.88171279  3.14584949  3.1458523
  3.17269991  3.26390798  3.51469888  3.51470269  3.59737738  3.75815651
  3.75815806  3.80995688  3.9225977   3.92259919  4.16362319  4.29998704
  4.45627864  4.45628351  4.57024963  4.93658774  4.9365897   6.13794601
  6.13794942  6.2310582   6.35599732  6.35600202  6.42170534  6.42170885
  6.42556623  6.72146079  6.84795135  6.84795143  6.88564835  6.88564921
  6.89797505  7.08918486  7.13025252  7.13025595  7.33567496  7.4799502
  7.47996788  7.53031903  7.66762882  7.66763674  7.7441581   7.85401422
  7.85402137  7.98263228  8.02603512  8.06627034  8.06627111  8.18546165
  8.21967059  8.23202016  8.23202054  8.36285328  8.36285603  8.37738481
  8.48841659  8.48841705  8.49840098  8.73545143  8.73545219  8.82098443
  8.93708659  8.96208379  8.96208918  9.2635894   9.28504148  9.2850466
  9.46858345  9.60478592  9.60478687  9.9356874   9.93569026 10.20895041
 10.20895305 10.31258021 10.49540037 10.74353398 10.74376087 10.74376578
 11.86175927 11.95011103 11.95011195 12.45512101 12.4551374  12.4688786
 12.47842492 12.77948301 12.77951797 14.84612794 14.8461616  20.24367675]
E1 = -34.920355659598705  E_coul = 14.631910405474224
Extra cycle  E= -11.4609002952932  delta_E= -6.39e-14  |g|= 1.13e-07  |ddm|= 1.36e-06
    CPU time for scf_cycle    560.04 sec, wall time      4.63 sec
    CPU time for SCF    560.04 sec, wall time      4.63 sec
converged SCF energy = -11.4609002952932
