#INFO: **** input file is /home/nkousuke/lustre/toBeSync/turboRVB/05turbo-genius-development/turbogenius_paper/04data/sanity_checks/03pyscf_HF_turbo_VMC_via_trexio/00open_boundary/results/Ne2/pyscf-HF-workflow/run.py ****

from pyscf_wrapper import Pyscf_wrapper

# input variables
pyscf_chkfile="pyscf.chk"
structure_file="Ne2.xyz"

# input variables
omp_num_threads=128
charge=0
spin=0
basis="ccecp-ccpv6z"
ecp="ccecp"
scf_method="HF"
dft_xc="NA"
solver_newton=False
MP2_flag=False
CCSD_flag=False
pyscf_output="out.pyscf"
twist_average=False
exp_to_discard=0.0
kpt=[0.0, 0.0, 0.0]
kpt_grid=[1, 1, 1]
smearing_method="fermi"
smearing_sigma=0.0

pyscf_calc=Pyscf_wrapper(
                        structure_file=structure_file,
                        chkfile=pyscf_chkfile,
                        )

pyscf_calc.run_pyscf(
                  omp_num_threads=omp_num_threads,
                  charge=charge,
                  spin=spin,
                  basis=basis,
                  ecp=ecp,
                  scf_method=scf_method,
                  dft_xc=dft_xc,
                  solver_newton=solver_newton,
                  MP2_flag=MP2_flag,
                  CCSD_flag=CCSD_flag,
                  pyscf_output=pyscf_output,
                  twist_average=twist_average,
                  exp_to_discard=exp_to_discard,
                  kpt=kpt,
                  kpt_grid=kpt_grid,
                  smearing_method=smearing_method,
                  smearing_sigma=smearing_sigma
                  )
                #INFO: ******************** input file end ********************


System: uname_result(system='Linux', node='spcc-238', release='5.4.0-66-generic', version='#74-Ubuntu SMP Wed Jan 27 22:54:38 UTC 2021', machine='x86_64', processor='x86_64')  Threads 128
Python 3.7.3 (default, Mar 27 2019, 22:11:17) 
[GCC 7.3.0]
numpy 1.20.1  scipy 1.7.3
Date: Mon Dec 19 18:05:45 2022
PySCF version 2.0.1
PySCF path  /home/nkousuke/application/anaconda3/lib/python3.7/site-packages/pyscf

[CONFIG] conf_file /home/nkousuke/.pyscf_conf.py
[INPUT] verbose = 5
[INPUT] max_memory = 506298.0859375 
[INPUT] num. atoms = 2
[INPUT] num. electrons = 16
[INPUT] charge = 0
[INPUT] spin (= nelec alpha-beta = 2S) = 0
[INPUT] symmetry False subgroup None
[INPUT] Mole.unit = A
[INPUT]  1 Ne     0.000000000000   0.000000000000   1.550000000000 AA    0.000000000000   0.000000000000   2.929075493076 Bohr
[INPUT]  2 Ne     0.000000000000   0.000000000000  -1.550000000000 AA    0.000000000000   0.000000000000  -2.929075493076 Bohr
[INPUT] ---------------- BASIS SET ---------------- 
[INPUT] l, kappa, [nprim/nctr], expnt,             c_1 c_2 ...
[INPUT] Ne
[INPUT] 0    0    [10   /1   ]  89.999848         3.37e-05
                                44.745732         -0.0005586
                                22.246488         0.0185884
                                11.060411         -0.1268973
                                5.498967          -0.0485302
                                2.733953          0.1789178
                                1.359255          0.3770102
                                0.675788          0.3900693
                                0.335985          0.1855301
                                0.167044          0.0249438
[INPUT] 0    0    [1    /1   ]  5.645582             1
[INPUT] 0    0    [1    /1   ]  2.598539             1
[INPUT] 0    0    [1    /1   ]  1.196052             1
[INPUT] 0    0    [1    /1   ]  0.550517             1
[INPUT] 0    0    [1    /1   ]  0.253391             1
[INPUT] 1    0    [10   /1   ]  40.001333         0.0036474
                                20.592442         0.0330182
                                10.600863         0.0681433
                                5.45726           0.1351194
                                2.809364          0.2148419
                                1.446244          0.264952
                                0.744517          0.2584338
                                0.383273          0.1904296
                                0.197307          0.0847494
                                0.101572          0.0154205
[INPUT] 1    0    [1    /1   ]  5.956575             1
[INPUT] 1    0    [1    /1   ]  2.513531             1
[INPUT] 1    0    [1    /1   ]  1.060649             1
[INPUT] 1    0    [1    /1   ]  0.447568             1
[INPUT] 1    0    [1    /1   ]  0.188863             1
[INPUT] 2    0    [1    /1   ]  15.50208             1
[INPUT] 2    0    [1    /1   ]  6.688366             1
[INPUT] 2    0    [1    /1   ]  2.885693             1
[INPUT] 2    0    [1    /1   ]  1.245031             1
[INPUT] 2    0    [1    /1   ]  0.537168             1
[INPUT] 3    0    [1    /1   ]  9.454061             1
[INPUT] 3    0    [1    /1   ]  4.194532             1
[INPUT] 3    0    [1    /1   ]  1.86101              1
[INPUT] 3    0    [1    /1   ]  0.825684             1
[INPUT] 4    0    [1    /1   ]  8.764366             1
[INPUT] 4    0    [1    /1   ]  3.622402             1
[INPUT] 4    0    [1    /1   ]  1.497176             1
[INPUT] 5    0    [1    /1   ]  6.298847             1
[INPUT] 5    0    [1    /1   ]  2.452948             1
[INPUT] 6    0    [1    /1   ]  4.489278             1

nuclear repulsion = 10.9249488706065
number of shells = 54
number of NR pGTOs = 350
number of NR cGTOs = 278
basis = ccecp-ccpv6z
ecp = ccecp
CPU time:         5.89


******** <class 'pyscf.scf.hf.RHF'> ********
method = RHF
initial guess = minao
damping factor = 0
level_shift factor = 0
DIIS = <class 'pyscf.scf.diis.CDIIS'>
diis_start_cycle = 1
diis_space = 8
SCF conv_tol = 1e-09
SCF conv_tol_grad = None
SCF max_cycles = 200
direct_scf = True
direct_scf_tol = 1e-13
chkfile to save SCF result = pyscf.chk
max_memory 506298 MB (current use 106 MB)
Set gradient conv threshold to 3.16228e-05
E1 = -142.7101461122299  E_coul = 62.36738236842242
init E= -69.417814873201
cond(S) = 25653.097060097116
    CPU time for initialize scf   1402.67 sec, wall time     13.75 sec
  HOMO = -0.845289214675065  LUMO = 0.397258113193754
  mo_energy =
[-1.94203547 -1.94097422 -0.85620961 -0.85149987 -0.85149987 -0.85001211
 -0.85001211 -0.84528921  0.39725811  0.44486307  0.44486307  0.48113331
  0.51214145  0.51214145  0.520796    0.70401415  1.40547468  1.42808413
  1.42808413  1.43724297  1.43724297  1.43860184  1.43860184  1.44833353
  1.44833353  1.50018526  1.90542191  1.90542191  1.94851721  1.94851721
  1.9727932   1.99569436  2.53964284  2.68264213  3.15343072  3.15618277
  3.15618277  3.15766199  3.15766199  3.15795959  3.15795959  3.15798456
  3.15798456  3.15827356  3.15827356  3.16199643  3.16199643  3.18909847
  4.17111625  4.19506675  4.19506675  4.2039678   4.2039678   4.20541201
  4.20541201  4.21763593  4.21763593  4.30443297  5.66070676  5.66070676
  5.68958844  5.68958844  5.70620005  5.73364596  7.36916548  7.36916548
  7.36916781  7.36916781  7.36916827  7.36916827  7.36916856  7.36916856
  7.36916949  7.36916949  7.36916951  7.36916951  7.36923765  7.36923765
  7.36927016  7.36927016  7.36931085  7.36968661  7.90902641  8.02410793
  8.63509107  8.6375068   8.6375068   8.63870209  8.63870209  8.63891506
  8.63891506  8.63893214  8.63893214  8.63914208  8.63914208  8.64182526
  8.64182526  8.66084633 10.45238795 10.47214504 10.47214504 10.47915924
 10.47915924 10.48028762 10.48028762 10.49021684 10.49021684 10.56273946
 14.75022161 14.75022161 14.75022169 14.75022169 14.7502221  14.7502221
 14.7502223  14.7502223  14.75022232 14.75022232 14.75022252 14.75022252
 14.75022293 14.75022293 14.75022293 14.75022293 14.7502234  14.7502234
 14.7502234  14.7502234  14.75022478 14.7502329  15.51600965 15.51600965
 15.54560908 15.54560908 15.56318123 15.575823   20.26690988 20.26691437
 20.26691437 20.26691478 20.26691478 20.26691509 20.26691509 20.26691513
 20.26691513 20.26691551 20.26691551 20.26691551 20.26691551 20.26693211
 20.26694761 20.26694761 20.26695911 20.26695911 20.33421218 20.46048284
 20.56885406 20.56980695 20.56980695 20.57050938 20.57050938 20.57063698
 20.57063698 20.57064707 20.57064707 20.57077357 20.57077357 20.57246762
 20.57246762 20.59599274 25.47123513 25.48586365 25.48586365 25.49085317
 25.49085317 25.49164159 25.49164159 25.49881939 25.49881939 25.55220084
 32.16214079 32.16214082 32.16214083 32.16214083 32.16214083 32.16214083
 32.16214095 32.16214095 32.16214095 32.16214095 32.16214115 32.16214115
 32.16214115 32.16214115 32.16214137 32.16214137 32.16214137 32.16214137
 32.1621416  32.1621416  32.1621416  32.1621416  32.16214181 32.16214181
 32.16214181 32.16214181 41.90871549 41.90871549 41.9087155  41.9087155
 41.90871567 41.90871567 41.90871567 41.90871567 41.90871577 41.90871577
 41.90871585 41.90871585 41.90871585 41.90871585 41.908716   41.908716
 41.90871601 41.90871601 41.90871601 41.90871601 41.90871692 41.90872066
 46.16170815 46.16170815 46.20839206 46.20839206 46.20849456 46.21886051
 48.4508834  48.45098569 48.45098569 48.4513231  48.4513231  48.4513973
 48.4513973  48.45140307 48.45140307 48.4514769  48.4514769  48.45254806
 48.45254806 48.45955045 49.74368579 49.94587362 51.52764523 51.52764523
 51.52764537 51.52764537 51.52764546 51.52764546 51.52764547 51.52764547
 51.52764561 51.52764561 51.52764561 51.52764561 51.52766777 51.52766777
 51.52767194 51.52767194 51.52772668 51.52787874 63.18821249 63.19860583
 63.19860583 63.20223258 63.20223258 63.20279625 63.20279625 63.20800203
 63.20800203 63.24765348]
E1 = -142.71109483982602  E_coul = 62.368598075515976
cycle= 1 E= -69.4175478937036  delta_E= 0.000267  |g|= 0.00073  |ddm|= 0.0297
    CPU time for cycle= 1     55.67 sec, wall time      0.52 sec
  HOMO = -0.847062162355419  LUMO = 0.397238902055595
  mo_energy =
[-1.94170462 -1.94113923 -0.85434988 -0.85116081 -0.85116081 -0.85018594
 -0.85018594 -0.84706216  0.3972389   0.44486708  0.44486708  0.48115174
  0.51214779  0.51214779  0.52082085  0.70399878  1.4055168   1.42811762
  1.42811762  1.43726363  1.43726363  1.43861612  1.43861612  1.44832569
  1.44832569  1.50014919  1.90545267  1.90545267  1.94855038  1.94855038
  1.97282994  1.99571085  2.53967851  2.68266817  3.15344863  3.15620064
  3.15620064  3.15768017  3.15768017  3.15798039  3.15798039  3.15800504
  3.15800504  3.15828955  3.15828955  3.16200718  3.16200718  3.18910701
  4.17116259  4.1951148   4.1951148   4.20401872  4.20401872  4.20546198
  4.20546198  4.21768014  4.21768014  4.30446879  5.66077353  5.66077353
  5.68965582  5.68965582  5.70626542  5.73370644  7.36920101  7.36920101
  7.36920302  7.36920302  7.36920457  7.36920457  7.36920479  7.36920479
  7.36920613  7.36920613  7.36920614  7.36920614  7.36927255  7.36927255
  7.36930434  7.36930434  7.36934553  7.36972033  7.9090986   8.02417853
  8.63514768  8.6375637   8.6375637   8.63875894  8.63875894  8.63897044
  8.63897044  8.63898752  8.63898752  8.63919891  8.63919891  8.64188208
  8.64188208  8.66090309 10.4524747  10.47223102 10.47223102 10.47924229
 10.47924229 10.48037048 10.48037048 10.49030166 10.49030166 10.56282318
 14.75027571 14.75027571 14.75027571 14.75027571 14.75027723 14.75027723
 14.75027723 14.75027723 14.75027776 14.75027776 14.75027781 14.75027781
 14.75027782 14.75027782 14.75027782 14.75027782 14.75027854 14.75027854
 14.75027892 14.75027892 14.75028131 14.75028938 15.51611676 15.51611676
 15.5457163  15.5457163  15.5632946  15.57593563 20.26699426 20.26699426
 20.26699426 20.26699426 20.26699911 20.26699911 20.26699914 20.26699914
 20.26699997 20.26700185 20.26700185 20.26700224 20.26700224 20.26702216
 20.26703703 20.26703703 20.2670485  20.2670485  20.3343277  20.46059651
 20.56895791 20.56990974 20.56990974 20.57060848 20.57060848 20.57072944
 20.57072944 20.57073952 20.57073952 20.57087264 20.57087264 20.57257023
 20.57257023 20.59609816 25.47136261 25.48598865 25.48598865 25.49096988
 25.49096988 25.49175829 25.49175829 25.49894432 25.49894432 25.55232783
 32.16221866 32.16221866 32.16221866 32.16221866 32.16222293 32.16222293
 32.16222293 32.16222293 32.1622262  32.1622262  32.1622262  32.1622262
 32.1622286  32.1622286  32.1622286  32.1622286  32.16223022 32.16223022
 32.16223022 32.16223022 32.16223116 32.16223116 32.16223117 32.16223117
 32.16223147 32.16223151 41.9088164  41.9088164  41.9088164  41.9088164
 41.90882309 41.90882309 41.90882309 41.90882309 41.90882813 41.90882813
 41.90882813 41.90882813 41.90883161 41.90883161 41.90883162 41.90883162
 41.90883405 41.90883405 41.90883428 41.90883428 41.90883591 41.90883965
 46.16185479 46.16185479 46.20853906 46.20853906 46.2086523  46.21901726
 48.45102964 48.45113001 48.45113001 48.45146194 48.45146194 48.45152688
 48.45152688 48.45153265 48.45153265 48.45161574 48.45161574 48.45269227
 48.45269227 48.45969627 49.7438416  49.94602926 51.52776682 51.52776682
 51.52776682 51.52776682 51.52777523 51.52777523 51.52777524 51.52777524
 51.52778102 51.52778102 51.52778116 51.52778116 51.52780713 51.52780713
 51.52781129 51.52781129 51.52786722 51.52801926 63.18837297 63.19876302
 63.19876302 63.20237979 63.20237979 63.20294346 63.20294346 63.20815921
 63.20815921 63.24781372]
E1 = -142.71060896483033  E_coul = 62.368112050639766
cycle= 2 E= -69.4175480435841  delta_E= -1.5e-07  |g|= 0.000135  |ddm|= 0.00135
    CPU time for cycle= 2     96.10 sec, wall time      0.76 sec
  HOMO = -0.847110498039003  LUMO = 0.397231274535531
  mo_energy =
[-1.94173691 -1.94117242 -0.85438702 -0.85118794 -0.85118794 -0.85021357
 -0.85021357 -0.8471105   0.39723127  0.44486396  0.44486396  0.48114874
  0.5121449   0.5121449   0.52081786  0.70398938  1.40551332  1.42811147
  1.42811147  1.43725698  1.43725698  1.43860937  1.43860937  1.44831737
  1.44831737  1.50013525  1.90544115  1.90544115  1.9485394   1.9485394
  1.97281635  1.99569449  2.53966405  2.68265362  3.15344252  3.15619458
  3.15619458  3.15767457  3.15767457  3.1579757   3.1579757   3.15800035
  3.15800035  3.15828385  3.15828385  3.1620006   3.1620006   3.18909985
  4.17114305  4.19509585  4.19509585  4.20400109  4.20400109  4.20544436
  4.20544436  4.21766131  4.21766131  4.30444881  5.66074616  5.66074616
  5.68962863  5.68962863  5.7062361   5.73367674  7.3691914   7.3691914
  7.3691934   7.3691934   7.36919521  7.36919521  7.36919543  7.36919543
  7.36919696  7.36919696  7.36919697  7.36919697  7.36926275  7.36926275
  7.36929448  7.36929448  7.36933565  7.36971036  7.90906853  8.02414862
  8.63512862  8.6375447   8.6375447   8.63873981  8.63873981  8.63895079
  8.63895079  8.63896786  8.63896786  8.63917978  8.63917978  8.64186309
  8.64186309  8.66088418 10.4524401  10.47219628 10.47219628 10.47920673
 10.47920673 10.48033491 10.48033491 10.49026688 10.49026688 10.56278841
 14.75025901 14.75025901 14.75025901 14.75025901 14.75026112 14.75026112
 14.75026112 14.75026112 14.75026206 14.75026206 14.75026207 14.75026207
 14.75026222 14.75026222 14.75026228 14.75026228 14.7502631  14.7502631
 14.75026348 14.75026348 14.7502659  14.75027397 15.51606476 15.51606476
 15.54566439 15.54566439 15.56324456 15.57588567 20.26695956 20.26695956
 20.26695956 20.26695956 20.2669663  20.2669663  20.26696634 20.26696634
 20.26696935 20.26697033 20.26697033 20.26697072 20.26697072 20.26699156
 20.26700623 20.26700623 20.26701771 20.26701771 20.33427291 20.46054305
 20.56891795 20.56986942 20.56986942 20.57056675 20.57056675 20.57068521
 20.57068521 20.57069529 20.57069529 20.57083091 20.57083091 20.57252989
 20.57252989 20.59605704 25.47130636 25.48593142 25.48593142 25.49090947
 25.49090947 25.49169788 25.49169788 25.49888709 25.49888709 25.55227153
 32.16218507 32.16218507 32.16218507 32.16218507 32.16219091 32.16219091
 32.16219091 32.16219091 32.16219543 32.16219543 32.16219543 32.16219543
 32.16219876 32.16219876 32.16219876 32.16219876 32.16220104 32.16220104
 32.16220104 32.16220104 32.16220236 32.16220236 32.16220236 32.16220236
 32.1622028  32.16220283 41.90876398 41.90876398 41.90876398 41.90876398
 41.90877331 41.90877331 41.90877331 41.90877331 41.90878035 41.90878035
 41.90878035 41.90878035 41.90878524 41.90878524 41.90878525 41.90878525
 41.90878852 41.90878852 41.90878875 41.90878875 41.90879066 41.90879439
 46.16177385 46.16177385 46.20845801 46.20845801 46.2085756  46.21894026
 48.4509632  48.45106279 48.45106279 48.45139249 48.45139249 48.45145366
 48.45145366 48.45145942 48.45145942 48.45154629 48.45154629 48.45262503
 48.45262503 48.45962969 49.74375796 49.9459454  51.52769833 51.52769833
 51.52769833 51.52769833 51.52771019 51.52771019 51.5277102  51.5277102
 51.5277184  51.5277184  51.52771854 51.52771854 51.52774595 51.52774595
 51.52775011 51.52775011 51.52780653 51.52795856 63.18829421 63.19868289
 63.19868289 63.20229551 63.20229551 63.20285918 63.20285918 63.20807908
 63.20807908 63.2477349 ]
E1 = -142.7108965216433  E_coul = 62.36839960197663
cycle= 3 E= -69.4175480490602  delta_E= -5.48e-09  |g|= 5.7e-05  |ddm|= 0.000318
    CPU time for cycle= 3     80.36 sec, wall time      0.63 sec
  HOMO = -0.847099105347882  LUMO = 0.397231775304862
  mo_energy =
[-1.94172154 -1.94115709 -0.85437479 -0.85117207 -0.85117207 -0.85019769
 -0.85019769 -0.84709911  0.39723178  0.44486553  0.44486553  0.48115111
  0.51214673  0.51214673  0.52082043  0.70399054  1.40551684  1.42811478
  1.42811478  1.43726017  1.43726017  1.43861256  1.43861256  1.44832047
  1.44832047  1.50013805  1.90544746  1.90544746  1.94854579  1.94854579
  1.9728218   1.99569933  2.53967086  2.68266007  3.15344541  3.1561975
  3.1561975   3.15767762  3.15767762  3.15797897  3.15797897  3.15800362
  3.15800362  3.15828689  3.15828689  3.16200347  3.16200347  3.18910275
  4.17115186  4.19510477  4.19510477  4.20401033  4.20401033  4.2054536
  4.2054536   4.21767022  4.21767022  4.30445747  5.66075957  5.66075957
  5.68964204  5.68964204  5.70624886  5.7336893   7.36919698  7.36919698
  7.36919898  7.36919898  7.36920086  7.36920086  7.36920108  7.36920108
  7.36920269  7.36920269  7.3692027   7.3692027   7.36926827  7.36926827
  7.3693      7.3693      7.36934116  7.36971586  7.90908284  8.02416283
  8.6351386   8.63755468  8.63755468  8.63874973  8.63874973  8.63896059
  8.63896059  8.63897767  8.63897767  8.63918971  8.63918971  8.64187306
  8.64187306  8.66089421 10.45245685 10.47221297 10.47221297 10.47922323
 10.47922323 10.48035141 10.48035141 10.49028354 10.49028354 10.56280501
 14.75026769 14.75026769 14.75026769 14.75026769 14.75026992 14.75026992
 14.75026992 14.75026992 14.75027094 14.75027094 14.75027095 14.75027095
 14.75027114 14.75027114 14.7502712  14.7502712  14.75027206 14.75027206
 14.75027243 14.75027243 14.75027486 14.75028293 15.51608785 15.51608785
 15.54568747 15.54568747 15.56326814 15.57590922 20.26697468 20.26697468
 20.26697468 20.26697468 20.26698193 20.26698193 20.26698196 20.26698196
 20.2669856  20.26698629 20.26698629 20.26698668 20.26698668 20.26700781
 20.2670224  20.2670224  20.26703388 20.26703388 20.33429768 20.46056735
 20.56893806 20.5698894  20.5698894  20.57058633 20.57058633 20.57070411
 20.57070411 20.57071419 20.57071419 20.57085049 20.57085049 20.57254986
 20.57254986 20.59607764 25.47133317 25.48595795 25.48595795 25.4909351
 25.4909351  25.49172351 25.49172351 25.4989136  25.4989136  25.55229828
 32.16219954 32.16219954 32.16219954 32.16219954 32.16220578 32.16220578
 32.16220578 32.16220578 32.16221063 32.16221063 32.16221063 32.16221063
 32.16221421 32.16221421 32.16221421 32.16221421 32.16221665 32.16221665
 32.16221665 32.16221665 32.16221808 32.16221808 32.16221808 32.16221808
 32.16221855 32.16221858 41.90878509 41.90878509 41.90878509 41.90878509
 41.90879514 41.90879514 41.90879514 41.90879514 41.90880274 41.90880274
 41.90880274 41.90880274 41.90880803 41.90880803 41.90880804 41.90880804
 41.90881155 41.90881155 41.90881177 41.90881177 41.90881377 41.9088175
 46.16180819 46.16180819 46.20849242 46.20849242 46.20861127 46.2189758
 48.45099486 48.45109421 48.45109421 48.45142326 48.45142326 48.45148334
 48.45148334 48.45148911 48.45148911 48.45157706 48.45157706 48.45265645
 48.45265645 48.4596613  49.74379444 49.94598187 51.52772561 51.52772561
 51.52772561 51.52772561 51.52773846 51.52773846 51.52773847 51.52773847
 51.52774737 51.52774737 51.52774751 51.52774751 51.52777534 51.52777534
 51.5277795  51.5277795  51.52783606 51.52798808 63.1883306  63.19871888
 63.19871888 63.20233029 63.20233029 63.20289396 63.20289396 63.20811507
 63.20811507 63.24777127]
E1 = -142.71077869998695  E_coul = 62.368281779864546
cycle= 4 E= -69.4175480495159  delta_E= -4.56e-10  |g|= 1.16e-05  |ddm|= 6.25e-05
    CPU time for cycle= 4    107.86 sec, wall time      0.86 sec
  HOMO = -0.847102656769951  LUMO = 0.397230656179736
  mo_energy =
[-1.94172346 -1.94115901 -0.85437816 -0.85117326 -0.85117326 -0.85019888
 -0.85019888 -0.84710266  0.39723066  0.44486536  0.44486536  0.481151
  0.51214663  0.51214663  0.52082025  0.70398966  1.40551641  1.42811432
  1.42811432  1.43725965  1.43725965  1.43861203  1.43861203  1.44831994
  1.44831994  1.50013729  1.90544687  1.90544687  1.94854526  1.94854526
  1.97282076  1.99569787  2.53966993  2.68265909  3.15344486  3.15619698
  3.15619698  3.15767718  3.15767718  3.15797865  3.15797865  3.1580033
  3.1580033   3.15828645  3.15828645  3.16200295  3.16200295  3.18910218
  4.17115057  4.19510354  4.19510354  4.20400927  4.20400927  4.20545254
  4.20545254  4.21766899  4.21766899  4.30445613  5.660758    5.660758
  5.6896405   5.6896405   5.70624692  5.73368728  7.36919628  7.36919628
  7.36919828  7.36919828  7.36920021  7.36920021  7.36920043  7.36920043
  7.36920209  7.36920209  7.3692021   7.3692021   7.36926755  7.36926755
  7.36929928  7.36929928  7.36934042  7.36971512  7.90908102  8.02416101
  8.63513742  8.63755349  8.63755349  8.63874852  8.63874852  8.63895932
  8.63895932  8.63897639  8.63897639  8.63918849  8.63918849  8.64187187
  8.64187187  8.66089304 10.45245479 10.47221089 10.47221089 10.47922107
 10.47922107 10.48034925 10.48034925 10.49028147 10.49028147 10.56280294
 14.75026658 14.75026658 14.75026658 14.75026658 14.75026886 14.75026886
 14.75026886 14.75026886 14.75026991 14.75026991 14.75026992 14.75026992
 14.75027014 14.75027014 14.75027019 14.75027019 14.75027106 14.75027106
 14.75027144 14.75027144 14.75027387 14.75028194 15.51608475 15.51608475
 15.54568438 15.54568438 15.56326532 15.57590639 20.26697236 20.26697236
 20.26697236 20.26697236 20.26697989 20.26697989 20.26697992 20.26697992
 20.2669839  20.26698444 20.26698444 20.26698483 20.26698483 20.26700611
 20.26702066 20.26702066 20.26703214 20.26703214 20.33429449 20.46056423
 20.56893587 20.56988714 20.56988714 20.57058385 20.57058385 20.57070125
 20.57070125 20.57071133 20.57071133 20.57084801 20.57084801 20.5725476
 20.5725476  20.59607538 25.47133011 25.48595472 25.48595472 25.49093137
 25.49093137 25.49171978 25.49171978 25.49891037 25.49891037 25.5522952
 32.16219724 32.16219724 32.16219724 32.16219724 32.16220371 32.16220371
 32.16220371 32.16220371 32.16220873 32.16220873 32.16220873 32.16220873
 32.16221244 32.16221244 32.16221244 32.16221244 32.16221498 32.16221498
 32.16221498 32.16221498 32.16221647 32.16221647 32.16221647 32.16221647
 32.16221695 32.16221699 41.90878156 41.90878156 41.90878156 41.90878156
 41.90879203 41.90879203 41.90879203 41.90879203 41.90879995 41.90879995
 41.90879995 41.90879995 41.90880547 41.90880547 41.90880547 41.90880547
 41.90880912 41.90880912 41.90880934 41.90880934 41.90881138 41.90881511
 46.16180339 46.16180339 46.20848762 46.20848762 46.20860718 46.21897168
 48.45099135 48.45109058 48.45109058 48.45141925 48.45141925 48.4514787
 48.4514787  48.45148446 48.45148446 48.45157304 48.45157304 48.4526528
 48.4526528  48.45965777 49.74378965 49.94597706 51.52772114 51.52772114
 51.52772114 51.52772114 51.52773456 51.52773456 51.52773457 51.52773457
 51.52774388 51.52774388 51.52774401 51.52774401 51.52777209 51.52777209
 51.52777625 51.52777625 51.52783288 51.52798491 63.18832639 63.19871444
 63.19871444 63.20232514 63.20232514 63.20288881 63.20288881 63.20811062
 63.20811062 63.24776705]
E1 = -142.71079390400052  E_coul = 62.368296983833986
Extra cycle  E= -69.4175480495601  delta_E= -4.41e-11  |g|= 4.6e-06  |ddm|= 1.96e-05
    CPU time for scf_cycle   1836.57 sec, wall time     17.27 sec
    CPU time for SCF   1836.58 sec, wall time     17.27 sec
converged SCF energy = -69.4175480495601
