#INFO: **** input file is /home/nkousuke/lustre/toBeSync/turboRVB/05turbo-genius-development/turbogenius_paper/04data/sanity_checks/03pyscf_HF_turbo_VMC_via_trexio/00open_boundary/results/CH3Cl/pyscf-HF-workflow/run.py ****

from pyscf_wrapper import Pyscf_wrapper

# input variables
pyscf_chkfile="pyscf.chk"
structure_file="CH3Cl.xyz"

# input variables
omp_num_threads=128
charge=0
spin=0
basis="ccecp-ccpvqz"
ecp="ccecp"
scf_method="HF"
dft_xc="NA"
solver_newton=False
MP2_flag=False
CCSD_flag=False
pyscf_output="out.pyscf"
twist_average=False
exp_to_discard=0.0
kpt=[0.0, 0.0, 0.0]
kpt_grid=[1, 1, 1]
smearing_method="fermi"
smearing_sigma=0.0

pyscf_calc=Pyscf_wrapper(
                        structure_file=structure_file,
                        chkfile=pyscf_chkfile,
                        )

pyscf_calc.run_pyscf(
                  omp_num_threads=omp_num_threads,
                  charge=charge,
                  spin=spin,
                  basis=basis,
                  ecp=ecp,
                  scf_method=scf_method,
                  dft_xc=dft_xc,
                  solver_newton=solver_newton,
                  MP2_flag=MP2_flag,
                  CCSD_flag=CCSD_flag,
                  pyscf_output=pyscf_output,
                  twist_average=twist_average,
                  exp_to_discard=exp_to_discard,
                  kpt=kpt,
                  kpt_grid=kpt_grid,
                  smearing_method=smearing_method,
                  smearing_sigma=smearing_sigma
                  )
                #INFO: ******************** input file end ********************


System: uname_result(system='Linux', node='spcc-238', release='5.4.0-66-generic', version='#74-Ubuntu SMP Wed Jan 27 22:54:38 UTC 2021', machine='x86_64', processor='x86_64')  Threads 128
Python 3.7.3 (default, Mar 27 2019, 22:11:17) 
[GCC 7.3.0]
numpy 1.20.1  scipy 1.7.3
Date: Mon Dec 19 18:11:47 2022
PySCF version 2.0.1
PySCF path  /home/nkousuke/application/anaconda3/lib/python3.7/site-packages/pyscf

[CONFIG] conf_file /home/nkousuke/.pyscf_conf.py
[INPUT] verbose = 5
[INPUT] max_memory = 506328.08203125 
[INPUT] num. atoms = 5
[INPUT] num. electrons = 14
[INPUT] charge = 0
[INPUT] spin (= nelec alpha-beta = 2S) = 0
[INPUT] symmetry False subgroup None
[INPUT] Mole.unit = A
[INPUT]  1 C      0.000000000000   0.000000000000  -1.122560000000 AA    0.000000000000   0.000000000000  -2.121330958392 Bohr
[INPUT]  2 Cl     0.000000000000   0.000000000000   0.654640000000 AA    0.000000000000   0.000000000000   1.237090310185 Bohr
[INPUT]  3 H      0.000000000000   1.027917000000  -1.464503000000 AA    0.000000000000   1.942481608785  -2.767509578604 Bohr
[INPUT]  4 H      0.890203000000  -0.513959000000  -1.464503000000 AA    1.682239865266  -0.971241749255  -2.767509578604 Bohr
[INPUT]  5 H     -0.890203000000  -0.513959000000  -1.464503000000 AA   -1.682239865266  -0.971241749255  -2.767509578604 Bohr
[INPUT] ---------------- BASIS SET ---------------- 
[INPUT] l, kappa, [nprim/nctr], expnt,             c_1 c_2 ...
[INPUT] Cl
[INPUT] 0    0    [10   /1   ]  15.583847         0.002501
                                8.858485          -0.010046
                                5.035519          0.08581
                                2.862391          -0.290136
                                1.627098          -0.140314
                                0.924908          0.146839
                                0.525755          0.392484
                                0.29886           0.425061
                                0.169884          0.227195
                                0.096569          0.059828
[INPUT] 0    0    [1    /1   ]  1.038268             1
[INPUT] 0    0    [1    /1   ]  0.418863             1
[INPUT] 0    0    [1    /1   ]  0.16898              1
[INPUT] 1    0    [10   /1   ]  7.682894          -0.004609
                                4.507558          -0.001798
                                2.644587          -0.068614
                                1.551581          0.062352
                                0.910313          0.166337
                                0.534081          0.282292
                                0.313346          0.275967
                                0.18384           0.241328
                                0.107859          0.110223
                                0.063281          0.040289
[INPUT] 1    0    [1    /1   ]  2.626653             1
[INPUT] 1    0    [1    /1   ]  1.069041             1
[INPUT] 1    0    [1    /1   ]  0.435097             1
[INPUT] 2    0    [1    /1   ]  2.102692             1
[INPUT] 2    0    [1    /1   ]  0.763188             1
[INPUT] 2    0    [1    /1   ]  0.277005             1
[INPUT] 3    0    [1    /1   ]  1.139446             1
[INPUT] 3    0    [1    /1   ]  0.434852             1
[INPUT] 4    0    [1    /1   ]  0.844301             1
[INPUT] C
[INPUT] 0    0    [9    /1   ]  13.073594         0.0051583
                                6.541187          0.0603424
                                4.573411          -0.1978471
                                1.637494          -0.081034
                                0.819297          0.2321726
                                0.409924          0.2914643
                                0.2313            0.4336405
                                0.102619          0.213194
                                0.051344          0.0049848
[INPUT] 0    0    [1    /1   ]  0.846879             1
[INPUT] 0    0    [1    /1   ]  0.269659             1
[INPUT] 0    0    [1    /1   ]  0.109576             1
[INPUT] 1    0    [9    /1   ]  9.934169          0.0209076
                                3.886955          0.0572698
                                1.871016          0.1122682
                                0.935757          0.2130082
                                0.468003          0.2835815
                                0.239473          0.3011207
                                0.117063          0.2016934
                                0.058547          0.0453575
                                0.029281          0.0029775
[INPUT] 1    0    [1    /1   ]  0.804681             1
[INPUT] 1    0    [1    /1   ]  0.313254             1
[INPUT] 1    0    [1    /1   ]  0.105389             1
[INPUT] 2    0    [1    /1   ]  2.01376              1
[INPUT] 2    0    [1    /1   ]  0.684884             1
[INPUT] 2    0    [1    /1   ]  0.240171             1
[INPUT] 3    0    [1    /1   ]  0.457302             1
[INPUT] 3    0    [1    /1   ]  1.32493              1
[INPUT] 4    0    [1    /1   ]  1.03418              1
[INPUT] H
[INPUT] 0    0    [8    /1   ]  23.843185         0.0041149
                                10.212443         0.0104644
                                4.374164          0.0280111
                                1.873529          0.0758862
                                0.802465          0.1821062
                                0.343709          0.3485214
                                0.147217          0.3782313
                                0.063055          0.1164241
[INPUT] 0    0    [1    /1   ]  0.081856             1
[INPUT] 0    0    [1    /1   ]  0.233254             1
[INPUT] 0    0    [1    /1   ]  0.664673             1
[INPUT] 1    0    [1    /1   ]  0.284469             1
[INPUT] 1    0    [1    /1   ]  0.847159             1
[INPUT] 1    0    [1    /1   ]  2.522868             1
[INPUT] 2    0    [1    /1   ]  0.665279             1
[INPUT] 2    0    [1    /1   ]  2.048739             1
[INPUT] 3    0    [1    /1   ]  1.42146              1

nuclear repulsion = 19.8089536598428
number of shells = 58
number of NR pGTOs = 287
number of NR cGTOs = 198
basis = ccecp-ccpvqz
ecp = ccecp
CPU time:         6.37


******** <class 'pyscf.scf.hf.RHF'> ********
method = RHF
initial guess = minao
damping factor = 0
level_shift factor = 0
DIIS = <class 'pyscf.scf.diis.CDIIS'>
diis_start_cycle = 1
diis_space = 8
SCF conv_tol = 1e-09
SCF conv_tol_grad = None
SCF max_cycles = 200
direct_scf = True
direct_scf_tol = 1e-13
chkfile to save SCF result = pyscf.chk
max_memory 506328 MB (current use 106 MB)
Set gradient conv threshold to 3.16228e-05
E1 = -73.17535552638788  E_coul = 31.58054374845981
init E= -21.7858581180853
cond(S) = 58621.69013085953
    CPU time for initialize scf    278.85 sec, wall time      2.38 sec
  HOMO = -0.381874779659951  LUMO = 0.0511824806015348
  mo_energy =
[-1.41114237 -1.01877226 -0.57171886 -0.57171874 -0.54724123 -0.38187485
 -0.38187478  0.05118248  0.1050426   0.1557783   0.15577837  0.2559387
  0.2785664   0.27856642  0.39520347  0.41712392  0.42353905  0.42353917
  0.47628344  0.4762835   0.52354898  0.52354902  0.54980199  0.55810819
  0.55810821  0.7305786   0.78109543  0.81008815  0.81008817  0.85167819
  0.85167822  0.88366824  0.9192999   0.9535658   0.95356585  1.0344664
  1.11088006  1.11088008  1.1245403   1.16314598  1.16314601  1.29512858
  1.29512873  1.35101549  1.55144461  1.57718292  1.60023677  1.60023678
  1.61812507  1.64539798  1.645398    1.76004448  1.8490358   1.84903582
  1.89896787  1.90717935  1.90717936  1.99658021  1.99658024  1.99772427
  2.10571417  2.10571418  2.11058563  2.20898646  2.20898651  2.22931599
  2.32072125  2.38066027  2.38066032  2.42061149  2.42061172  2.5216511
  2.52165142  2.5297934   2.62961425  2.62961434  2.65967848  2.8517949
  2.8875214   2.88752151  2.93056037  2.93056055  3.06561753  3.12612609
  3.16753922  3.16753951  3.2587583   3.34301641  3.34301672  3.3687119
  3.37247355  3.46187352  3.461874    3.50778691  3.72758343  3.7275835
  3.81280728  3.96742143  3.96742143  3.98572652  4.09248977  4.09249028
  4.13772212  4.14681591  4.18623147  4.18623149  4.32839617  4.32839624
  4.40392705  4.40623699  4.44597178  4.64206001  4.64206001  4.6672326
  4.83001564  4.83001575  5.11084157  5.11084157  5.19430784  5.19430784
  5.2763446   5.46410083  5.59833229  5.59833282  5.60238238  5.71455448
  5.71455464  5.94833307  6.00026081  6.00026119  6.17553327  6.17553356
  6.23500069  6.23500072  6.25526748  6.37044428  6.48205958  6.51007805
  6.51007833  6.52533208  6.52533221  6.66603467  6.66603693  6.68783657
  6.84328195  6.97248452  6.97248561  7.01881269  7.35783526  7.35783527
  7.48356697  7.56153143  7.65472187  7.65472219  7.77518296  7.81801758
  7.81801769  7.95517891  7.99719308  7.9971931   8.0306067   8.03060694
  8.04295114  8.1346603   8.27043741  8.27043756  8.58857361  8.5885739
  8.63102524  8.65796316  8.65796401  8.71230052  8.7123009   8.72338971
  8.76847121  9.17226909  9.28856984  9.28857031  9.3516704   9.59632698
  9.59632722 10.30975492 10.37085659 10.37085685 10.47510616 10.5606402
 10.56064186 10.61982035 10.61982143 10.80481963 10.86915629 11.53651011
 11.53651016 12.10079123 12.80855837 12.80856315 17.85868502 20.58749558]
E1 = -73.9934350544105  E_coul = 32.213374240176854
cycle= 1 E= -21.9711071543909  delta_E= -0.185  |g|= 0.256  |ddm|= 3.68
    CPU time for cycle= 1     36.89 sec, wall time      0.32 sec
  HOMO = -0.420756805113523  LUMO = 0.0892222948421341
  mo_energy =
[-1.14814439 -0.94467155 -0.65632583 -0.65632564 -0.54865    -0.42075682
 -0.42075681  0.08922229  0.15193417  0.1519342   0.166017    0.2772428
  0.27724281  0.2855994   0.41883803  0.44232862  0.44584501  0.44584516
  0.4934912   0.49349125  0.56276158  0.5627616   0.57027994  0.5968358
  0.59683581  0.76363019  0.77593598  0.83006393  0.83006397  0.84853823
  0.84853827  0.87784102  0.93141654  0.96062308  0.96062312  1.07630976
  1.09680648  1.09680649  1.1247637   1.16959806  1.16959811  1.30502044
  1.30502061  1.36303235  1.61260578  1.62463712  1.64529903  1.64529904
  1.66260705  1.7071633   1.70716332  1.81568559  1.89813891  1.90634915
  1.90634917  1.93786423  1.93786427  2.00227421  2.00227422  2.02184289
  2.12000075  2.12000077  2.12150227  2.22553107  2.22553112  2.24984883
  2.30773086  2.41480199  2.41480212  2.4216309   2.42163098  2.52277225
  2.52277254  2.53701564  2.62327458  2.62327465  2.65193529  2.86360576
  2.88991723  2.88991739  2.92738998  2.92739019  3.05039216  3.11678495
  3.21048437  3.21048464  3.30369093  3.34202161  3.34202194  3.38101653
  3.41642954  3.46196819  3.46196872  3.53155994  3.74220627  3.74220637
  3.82956919  4.0392379   4.05845523  4.05845523  4.10376365  4.10376422
  4.19465421  4.21070793  4.2338049   4.23380496  4.38128667  4.38128672
  4.46147764  4.50704428  4.53594085  4.72614256  4.72614257  4.74265817
  4.90115702  4.90115713  5.21177579  5.21177579  5.27981391  5.27981392
  5.33098104  5.48184901  5.62538139  5.63075588  5.63075642  5.72835577
  5.72835594  5.96608421  6.01821362  6.01821403  6.19350721  6.19350742
  6.24286468  6.24286471  6.2551071   6.40032159  6.49005188  6.51213149
  6.51213189  6.54885999  6.54886022  6.67742536  6.67742766  6.711497
  6.86365055  6.99678088  6.99678202  7.02973731  7.3728744   7.37287443
  7.4783416   7.5786896   7.6591329   7.65913319  7.77684391  7.81935104
  7.81935117  7.96507685  7.98778571  7.98778577  8.0222132   8.02221336
  8.03374796  8.12862014  8.25982876  8.25982892  8.59202101  8.59202132
  8.63693584  8.6697826   8.66978336  8.72556945  8.74165902  8.7416595
  8.77739991  9.18983211  9.30180021  9.30180078  9.36435695  9.61255754
  9.61255774 10.32461077 10.38018574 10.38018601 10.49365305 10.59094661
 10.59094828 10.63819292 10.63819407 10.83955092 10.90000633 11.64181378
 11.64181383 12.19700587 12.84027916 12.84028407 17.96291374 20.63381228]
E1 = -74.28813195593874  E_coul = 32.4890999622678
cycle= 2 E= -21.9900783338282  delta_E= -0.019  |g|= 0.116  |ddm|= 0.541
    CPU time for cycle= 2    105.11 sec, wall time      0.87 sec
  HOMO = -0.432596352905431  LUMO = 0.100952119321769
  mo_energy =
[-1.13317512 -0.9189052  -0.61480188 -0.61480171 -0.54224415 -0.43259638
 -0.43259635  0.10095212  0.16337497  0.16337499  0.17990209  0.29095814
  0.29095815  0.29768734  0.41562698  0.46360892  0.46360903  0.46675048
  0.50864102  0.50864108  0.56254987  0.56254992  0.58396339  0.58966834
  0.58966836  0.77184446  0.78147343  0.83184828  0.83184832  0.86859911
  0.86859914  0.89539422  0.95459259  0.97260723  0.97260727  1.06894268
  1.11254252  1.11254253  1.14787421  1.18535704  1.18535707  1.33326754
  1.33326774  1.39004802  1.60257366  1.62373192  1.64362412  1.64362413
  1.65962607  1.69639529  1.6963953   1.80987276  1.89562002  1.89562003
  1.92860504  1.95352416  1.95352416  2.03491888  2.03491889  2.04598599
  2.14728554  2.14728557  2.15347177  2.25698841  2.25698847  2.28079713
  2.33527311  2.42689857  2.42689862  2.44404377  2.44404401  2.54672302
  2.54672334  2.56618706  2.64697574  2.64697581  2.67946213  2.88728854
  2.90675105  2.9067512   2.95080896  2.95080916  3.07787027  3.1409813
  3.21372914  3.21372943  3.30636022  3.3721368   3.37213714  3.40607852
  3.41502468  3.4991466   3.49914714  3.56108888  3.77799967  3.77799976
  3.85930721  4.0374151   4.0374151   4.03958162  4.1460731   4.14607361
  4.19460455  4.20181518  4.24159333  4.24159334  4.38618605  4.38618611
  4.46722803  4.47738091  4.51305953  4.69842805  4.69842805  4.72309616
  4.8863854   4.88638552  5.17959907  5.17959907  5.25392204  5.25392204
  5.33944648  5.54263873  5.68281818  5.68281874  5.687191    5.7862741
  5.78627428  6.02828617  6.07686832  6.07686874  6.2488712   6.24887148
  6.28780538  6.28780542  6.29271922  6.45633705  6.53005388  6.55411199
  6.55411242  6.59768203  6.59768226  6.73460244  6.73460476  6.76858026
  6.92993086  7.05206336  7.05206452  7.08064629  7.44049059  7.44049063
  7.52280482  7.62895643  7.70401581  7.70401609  7.81984664  7.86147419
  7.86147432  8.01263663  8.02750989  8.02750998  8.06334628  8.06334642
  8.07015376  8.16610208  8.296645    8.29664516  8.63284928  8.63284957
  8.68386827  8.7149956   8.71499627  8.76845881  8.80752609  8.80752665
  8.83079872  9.23864138  9.34773274  9.34773333  9.40930565  9.66350218
  9.66350236 10.37825787 10.4298572  10.42985751 10.54995176 10.65072126
 10.65072297 10.69697296 10.69697416 10.90054837 10.96018219 11.60254115
 11.6025412  12.15435598 12.90555915 12.90556408 17.92239662 20.73732006]
E1 = -74.16674940337307  E_coul = 32.36417772640794
cycle= 3 E= -21.9936180171224  delta_E= -0.00354  |g|= 0.0278  |ddm|= 0.181
    CPU time for cycle= 3     66.83 sec, wall time      0.54 sec
  HOMO = -0.434603634606628  LUMO = 0.101582644163764
  mo_energy =
[-1.13636061 -0.92041774 -0.61922831 -0.61922814 -0.54743556 -0.43460366
 -0.43460363  0.10158264  0.16345991  0.16345992  0.17985613  0.29055194
  0.29055196  0.29606895  0.4160077   0.46253655  0.46253667  0.46640476
  0.50752391  0.50752397  0.56192178  0.56192182  0.58352638  0.588994
  0.58899401  0.77112601  0.78230905  0.83214169  0.83214172  0.86710027
  0.8671003   0.89528927  0.95278332  0.97212659  0.97212663  1.06785872
  1.11248912  1.11248913  1.14724847  1.18410901  1.18410904  1.33238103
  1.33238121  1.39090297  1.6010253   1.62137639  1.64155983  1.64155984
  1.65779317  1.6951251   1.69512512  1.80854085  1.89477942  1.89477943
  1.92722078  1.95130794  1.95130795  2.03359441  2.03359443  2.04295568
  2.14464652  2.14464654  2.14960129  2.25462174  2.2546218   2.2780428
  2.3374418   2.42552118  2.42552124  2.4439605   2.44396074  2.54750022
  2.54750053  2.56566287  2.64825871  2.64825879  2.68050474  2.88590435
  2.90740945  2.90740959  2.95121122  2.95121142  3.07932077  3.1413082
  3.21298246  3.21298275  3.3070692   3.37216568  3.37216601  3.40537315
  3.41546451  3.4977773   3.49777782  3.55763591  3.77652636  3.77652644
  3.8583826   4.036487    4.03648701  4.03788583  4.14330042  4.14330093
  4.19236468  4.20017762  4.23882155  4.23882156  4.38317435  4.38317441
  4.46505093  4.47766149  4.51248864  4.69891741  4.69891741  4.72185069
  4.88518614  4.88518625  5.17983888  5.17983888  5.2540758   5.2540758
  5.33658107  5.53671677  5.6778453   5.67784585  5.67940875  5.78042458
  5.78042476  6.02150361  6.07210647  6.07210689  6.24573632  6.24573662
  6.28674993  6.28674999  6.29585374  6.45405978  6.5309359   6.55484116
  6.55484156  6.59366295  6.59366317  6.73065672  6.73065902  6.76354752
  6.92162004  7.04916881  7.04916997  7.0784271   7.43306676  7.43306679
  7.52265667  7.62709661  7.70597069  7.70597097  7.82248697  7.86416366
  7.86416378  8.01217394  8.03015168  8.03015177  8.06624171  8.06624188
  8.07573574  8.1692744   8.30063771  8.30063788  8.63778322  8.63778351
  8.68634272  8.71904221  8.7190429   8.7724541   8.80319112  8.80319165
  8.82918791  9.24163456  9.35251523  9.3525158   9.41436163  9.66443603
  9.66443623 10.37868919 10.43205099 10.4320513  10.55121432 10.65058233
 10.65058403 10.69578444 10.69578563 10.90056231 10.95837614 11.60332697
 11.60332702 12.15539068 12.9037037  12.90370862 17.92301791 20.71836675]
E1 = -74.19674533857156  E_coul = 32.393798929413336
cycle= 4 E= -21.9939927493155  delta_E= -0.000375  |g|= 0.00523  |ddm|= 0.0623
    CPU time for cycle= 4     85.62 sec, wall time      0.72 sec
  HOMO = -0.433251528632235  LUMO = 0.101594947111466
  mo_energy =
[-1.13470626 -0.91939346 -0.61869021 -0.61869004 -0.54608281 -0.43325156
 -0.43325153  0.10159495  0.16337211  0.16337213  0.18042665  0.29048914
  0.29048916  0.29692784  0.41634191  0.46320555  0.46320566  0.46642544
  0.50791019  0.50791025  0.56284436  0.56284441  0.58369857  0.58995398
  0.589954    0.7720859   0.78198321  0.83257524  0.83257527  0.86714724
  0.86714727  0.89512262  0.95303966  0.97232884  0.97232889  1.06877929
  1.1123537   1.11235371  1.1471695   1.18439098  1.18439101  1.33258625
  1.33258643  1.39080496  1.60231627  1.62254261  1.64284838  1.6428484
  1.6589087   1.6967612   1.69676122  1.81005098  1.89618715  1.89618716
  1.92723713  1.95224977  1.95224978  2.03358777  2.03358779  2.04351064
  2.14516976  2.14516978  2.15001662  2.25507023  2.25507029  2.27857684
  2.33699028  2.42644803  2.42644808  2.4439326   2.44393283  2.54754976
  2.54755007  2.56585601  2.64824555  2.64824563  2.68035288  2.88649184
  2.90765779  2.90765793  2.95125585  2.95125604  3.07905232  3.14128257
  3.21403515  3.21403544  3.30838087  3.37210227  3.3721026   3.40563386
  3.41626052  3.49798404  3.49798456  3.55859141  3.77694706  3.77694715
  3.85902199  4.03855114  4.03855114  4.03921152  4.14382244  4.14382295
  4.19374115  4.20163584  4.24024712  4.24024714  4.38471346  4.38471352
  4.46685727  4.48025869  4.514808    4.70109737  4.70109737  4.72395771
  4.88714979  4.8871499   5.18262309  5.18262309  5.25648318  5.25648318
  5.33845196  5.53751658  5.67848702  5.67848757  5.68056987  5.78138155
  5.78138173  6.02243889  6.07272468  6.0727251   6.24622975  6.24623005
  6.28704768  6.28704774  6.29538346  6.45417518  6.53110473  6.55477634
  6.55477675  6.59453809  6.59453831  6.73125511  6.73125741  6.76409195
  6.92327863  7.04977063  7.04977179  7.07888087  7.43428557  7.43428561
  7.52282597  7.62757825  7.70577417  7.70577445  7.82247213  7.86403049
  7.86403061  8.01261554  8.02998744  8.02998753  8.06614494  8.0661451
  8.07530329  8.16917685  8.30034421  8.30034437  8.63745314  8.63745343
  8.68636793  8.71874657  8.71874725  8.77221385  8.80392008  8.80392061
  8.82969108  9.24157754  9.35220082  9.3522014   9.41398893  9.66451484
  9.66451504 10.37895186 10.43198378 10.43198409 10.55141745 10.65087539
 10.65087709 10.6961587  10.69615989 10.90084185 10.95869378 11.60648592
 11.60648597 12.15835708 12.9042882  12.90429312 17.92627865 20.72131588]
E1 = -74.19108249528132  E_coul = 32.38811621819667
cycle= 5 E= -21.9940126172419  delta_E= -1.99e-05  |g|= 0.00177  |ddm|= 0.0143
    CPU time for cycle= 5     94.54 sec, wall time      0.80 sec
  HOMO = -0.434068837462117  LUMO = 0.101638055064347
  mo_energy =
[-1.13548572 -0.91969701 -0.61872764 -0.61872747 -0.54682255 -0.43406887
 -0.43406884  0.10163806  0.16344151  0.16344153  0.18018965  0.29046407
  0.29046409  0.29652569  0.41614906  0.46293726  0.46293738  0.46639804
  0.50771693  0.50771698  0.56249794  0.56249799  0.58352214  0.58947717
  0.58947719  0.77160549  0.78207439  0.83228626  0.83228629  0.86711468
  0.86711471  0.89514841  0.95288232  0.97220016  0.9722002   1.0682131
  1.11240342  1.11240343  1.1472123   1.18423896  1.18423899  1.33254368
  1.33254386  1.39081778  1.60173465  1.62190642  1.64213827  1.64213828
  1.65829799  1.69591417  1.69591419  1.80932947  1.8954186   1.89541861
  1.92718798  1.95181697  1.95181697  2.03357512  2.03357513  2.04324141
  2.14493606  2.14493608  2.14983294  2.25494074  2.2549408   2.27837914
  2.33713161  2.42604115  2.4260412   2.44389665  2.44389688  2.54753075
  2.54753106  2.56574487  2.64826554  2.64826562  2.68042548  2.88618472
  2.90745193  2.90745207  2.95119724  2.95119744  3.07917379  3.14128506
  3.21344884  3.21344912  3.30765696  3.37210548  3.37210581  3.40543644
  3.41582052  3.49799862  3.49799914  3.55820526  3.77680803  3.77680812
  3.85875084  4.03765074  4.03765074  4.03836264  4.14368775  4.14368826
  4.19296014  4.200763    4.23940124  4.23940125  4.38379412  4.38379418
  4.46595632  4.47907215  4.51371081  4.6999158   4.6999158   4.72278378
  4.88598202  4.88598214  5.18118216  5.18118216  5.25511387  5.25511387
  5.33744214  5.53740174  5.67832747  5.67832802  5.68041966  5.78124858
  5.78124876  6.02230189  6.07270679  6.0727072   6.24618301  6.24618332
  6.2870339   6.28703395  6.29553599  6.45415675  6.53106372  6.5548402
  6.5548406   6.59428226  6.59428248  6.73123236  6.73123466  6.76403605
  6.92309593  7.04966423  7.04966539  7.07886207  7.43422623  7.43422626
  7.52286618  7.62750428  7.70589426  7.70589454  7.82253586  7.86413051
  7.86413064  8.01257001  8.0301291   8.03012919  8.06628645  8.06628661
  8.07546587  8.16926527  8.30049709  8.30049725  8.63758202  8.63758231
  8.68646395  8.71883064  8.71883133  8.77232605  8.80386241  8.80386294
  8.82969137  9.2416131   9.35230396  9.35230453  9.41408233  9.66453221
  9.66453241 10.37896491 10.43206514 10.43206545 10.5514714  10.65087082
 10.65087252 10.69618355 10.69618475 10.9008326  10.95865367 11.60469148
 11.60469153 12.15641298 12.90426317 12.90426809 17.92431115 20.72109624]
E1 = -74.1921382778945  E_coul = 32.3891697574289
cycle= 6 E= -21.9940148606228  delta_E= -2.24e-06  |g|= 0.000426  |ddm|= 0.00645
    CPU time for cycle= 6     87.77 sec, wall time      0.71 sec
  HOMO = -0.434010834798427  LUMO = 0.101667268799345
  mo_energy =
[-1.13539068 -0.91966058 -0.61864867 -0.6186485  -0.54674505 -0.43401086
 -0.43401083  0.10166727  0.16347025  0.16347026  0.18021722  0.29049286
  0.29049288  0.29657502  0.41615687  0.46299427  0.46299438  0.46641772
  0.50775366  0.50775371  0.56254235  0.5625424   0.58357074  0.58951552
  0.58951553  0.77164718  0.78211349  0.83232734  0.83232737  0.86715578
  0.86715581  0.89519129  0.95293203  0.972242    0.97224204  1.06823639
  1.11244747  1.11244748  1.14724714  1.18427737  1.1842774   1.33259486
  1.33259504  1.39086266  1.60177267  1.62196432  1.64220809  1.6422081
  1.65835135  1.69600732  1.69600734  1.80938392  1.89549495  1.89549496
  1.92723853  1.95188332  1.95188333  2.03362558  2.0336256   2.04328307
  2.14500134  2.14500136  2.14989351  2.25499639  2.25499644  2.27845266
  2.33718335  2.42610135  2.42610141  2.44395071  2.44395095  2.54758622
  2.54758653  2.56581586  2.64832057  2.64832065  2.68047769  2.88626819
  2.90753091  2.90753105  2.95125357  2.95125377  3.0792269   3.14134813
  3.21352645  3.21352673  3.30773481  3.37215775  3.37215809  3.40549472
  3.41587584  3.49805785  3.49805837  3.55828923  3.7768688   3.77686888
  3.85883609  4.03774717  4.03774717  4.03845647  4.14375381  4.14375433
  4.19304959  4.20085037  4.23952073  4.23952075  4.38391767  4.38391773
  4.46608584  4.47922916  4.51386159  4.70002259  4.70002259  4.7228632
  4.88608491  4.88608503  5.18138975  5.18138975  5.25527852  5.25527852
  5.33759423  5.5374655   5.67837895  5.67837951  5.68048674  5.78133614
  5.78133632  6.02236752  6.07277302  6.07277344  6.24623499  6.2462353
  6.2870986   6.28709866  6.29559019  6.45419434  6.53113615  6.55490071
  6.55490112  6.59437142  6.59437165  6.73129252  6.73129482  6.76409797
  6.92319451  7.0497242   7.04972536  7.07894015  7.4342884   7.43428843
  7.52293893  7.62758189  7.70594714  7.70594742  7.82259197  7.86418677
  7.86418689  8.01264824  8.03018166  8.03018175  8.0663444   8.06634456
  8.07551846  8.16932832  8.30055249  8.30055266  8.63763544  8.63763572
  8.68652323  8.71888518  8.71888586  8.77238163  8.80390299  8.80390352
  8.82975896  9.24166839  9.35235833  9.35235891  9.41413195  9.66458417
  9.66458436 10.3790216  10.43212168 10.43212198 10.55151819 10.65091407
 10.65091577 10.6962387  10.6962399  10.90087225 10.95868791 11.60496127
 11.60496132 12.15664415 12.90429561 12.90430053 17.92460939 20.72110755]
E1 = -74.19177780564202  E_coul = 32.38880913350907
cycle= 7 E= -21.9940150122902  delta_E= -1.52e-07  |g|= 9.05e-05  |ddm|= 0.00131
    CPU time for cycle= 7     92.46 sec, wall time      0.76 sec
  HOMO = -0.434014319817792  LUMO = 0.101667665634083
  mo_energy =
[-1.13539607 -0.91965158 -0.6186403  -0.61864012 -0.5467367  -0.43401435
 -0.43401432  0.10166767  0.16347004  0.16347005  0.18021573  0.29049036
  0.29049038  0.29657637  0.41616441  0.46299496  0.46299507  0.46641806
  0.50775167  0.50775172  0.56254385  0.56254389  0.5835686   0.58951331
  0.58951333  0.77165149  0.78211204  0.83232952  0.83232954  0.86715599
  0.86715603  0.89518999  0.95293309  0.97224264  0.97224268  1.06824284
  1.1124475   1.11244751  1.14724813  1.1842769   1.18427693  1.3325972
  1.33259738  1.39086397  1.60176931  1.62195871  1.64220259  1.6422026
  1.65834739  1.69600308  1.6960031   1.80939947  1.8954969   1.89549691
  1.92723715  1.95188905  1.95188906  2.03362767  2.03362769  2.04328712
  2.14500246  2.14500248  2.14989299  2.25500285  2.25500291  2.27845554
  2.33718316  2.426104    2.42610405  2.44395048  2.44395071  2.54758735
  2.54758766  2.56581511  2.64832013  2.64832021  2.68047954  2.88626484
  2.90752655  2.90752669  2.95125225  2.95125245  3.0792273   3.14134841
  3.21353288  3.21353317  3.3077482   3.3721581   3.37215843  3.40549152
  3.41588737  3.49806216  3.49806268  3.55828931  3.7768713   3.77687138
  3.85883466  4.03774826  4.03774826  4.03845336  4.14375717  4.14375768
  4.1930449   4.20084349  4.23950578  4.23950579  4.38390271  4.38390277
  4.46608007  4.47923848  4.51386558  4.70003775  4.70003776  4.72288293
  4.88609379  4.88609391  5.18139602  5.18139602  5.25528659  5.25528659
  5.33759288  5.53747425  5.67838913  5.67838968  5.68050123  5.7813436
  5.78134378  6.02237798  6.07278333  6.07278375  6.24624307  6.24624337
  6.28710321  6.28710327  6.2955906   6.45420084  6.53113766  6.55490288
  6.55490329  6.59437449  6.59437472  6.73130188  6.73130418  6.76410819
  6.92320818  7.04973074  7.0497319   7.07894639  7.43430503  7.43430507
  7.52294003  7.62758489  7.70595     7.70595028  7.8225934   7.86418742
  7.86418754  8.01265045  8.03018344  8.03018353  8.06634646  8.06634663
  8.0755164   8.16932844  8.3005525   8.30055267  8.63763458  8.63763487
  8.68652662  8.71888466  8.71888535  8.77238176  8.80391492  8.80391545
  8.82976602  9.24166908  9.35235764  9.35235822  9.41413081  9.66458712
  9.66458731 10.37902561 10.43212412 10.43212443 10.5515244  10.65092107
 10.65092277 10.69624642 10.69624761 10.90087896 10.95869503 11.60496672
 11.60496677 12.15665095 12.90430645 12.90431136 17.92460885 20.72115043]
E1 = -74.19181417703221  E_coul = 32.38884549910199
cycle= 8 E= -21.9940150180875  delta_E= -5.8e-09  |g|= 2.32e-05  |ddm|= 0.000369
    CPU time for cycle= 8     73.62 sec, wall time      0.61 sec
  HOMO = -0.434013594586183  LUMO = 0.10166891872658
  mo_energy =
[-1.13539201 -0.91965036 -0.61863749 -0.61863731 -0.54673309 -0.43401362
 -0.43401359  0.10166892  0.16347139  0.16347141  0.18021572  0.29049196
  0.29049198  0.29657652  0.41616346  0.46299666  0.46299678  0.4664191
  0.50775365  0.5077537   0.56254477  0.56254482  0.5835717   0.58951412
  0.58951413  0.77165203  0.78211409  0.83233029  0.83233032  0.86715801
  0.86715804  0.89519165  0.95293414  0.97224413  0.97224418  1.06824242
  1.11244953  1.11244954  1.14724973  1.18427852  1.18427855  1.33259902
  1.33259921  1.390865    1.6017717   1.6219614   1.64220471  1.64220472
  1.65834944  1.69600521  1.69600523  1.80939848  1.89549867  1.89549868
  1.92723999  1.95189067  1.95189067  2.03362913  2.03362914  2.0432887
  2.14500501  2.14500503  2.14989628  2.25500432  2.25500438  2.27845699
  2.33718455  2.42610548  2.42610554  2.44395251  2.44395275  2.54758913
  2.54758944  2.56581644  2.64832209  2.64832217  2.68048082  2.88626733
  2.90752917  2.90752931  2.95125443  2.95125462  3.07922924  3.14135052
  3.21353401  3.21353429  3.30774803  3.37215995  3.37216029  3.40549423
  3.41588723  3.49806404  3.49806456  3.55829175  3.77687288  3.77687296
  3.85883694  4.03775208  4.03775208  4.03845566  4.14375958  4.14376009
  4.19304818  4.20084693  4.23950923  4.23950925  4.38390651  4.38390657
  4.46608265  4.47924169  4.51386875  4.70003773  4.70003773  4.72288146
  4.88609359  4.88609371  5.18139932  5.18139933  5.25528734  5.25528734
  5.33759415  5.53747722  5.67839019  5.67839075  5.68050373  5.78134686
  5.78134704  6.0223809   6.0727849   6.07278532  6.24624441  6.24624471
  6.28710503  6.28710509  6.29559134  6.45420072  6.53113889  6.55490441
  6.55490482  6.59437699  6.59437721  6.73130387  6.73130618  6.76410911
  6.92321084  7.04973198  7.04973313  7.07894799  7.43430747  7.4343075
  7.52294288  7.62758631  7.70595043  7.70595071  7.82259406  7.86418839
  7.86418851  8.01265185  8.03018434  8.03018443  8.06634763  8.06634779
  8.07551705  8.16932946  8.30055333  8.3005535   8.63763509  8.63763538
  8.6865275   8.71888469  8.71888538  8.77238253  8.80391553  8.80391606
  8.82976718  9.24166942  9.35235743  9.35235801  9.41413065  9.66458802
  9.66458822 10.3790266  10.43212457 10.43212488 10.55152423 10.65092082
 10.65092252 10.69624717 10.69624836 10.90087843 10.95869496 11.60496948
 11.60496953 12.1566502  12.90430619 12.9043111  17.92461131 20.7211528 ]
E1 = -74.19180378051938  E_coul = 32.388835102269056
cycle= 9 E= -21.9940150184076  delta_E= -3.2e-10  |g|= 3.85e-06  |ddm|= 9.56e-05
    CPU time for cycle= 9     74.08 sec, wall time      0.58 sec
  HOMO = -0.434012250013341  LUMO = 0.101669425644576
  mo_energy =
[-1.13539013 -0.91964861 -0.61863607 -0.61863589 -0.54673156 -0.43401228
 -0.43401225  0.10166943  0.16347176  0.16347178  0.18021664  0.29049245
  0.29049247  0.29657775  0.41616393  0.46299767  0.46299778  0.46641996
  0.50775443  0.50775449  0.56254562  0.56254566  0.58357259  0.58951487
  0.58951488  0.771653    0.7821146   0.83233114  0.83233117  0.86715875
  0.86715878  0.89519244  0.95293538  0.97224492  0.97224497  1.06824337
  1.11245016  1.11245017  1.14725059  1.18427934  1.18427936  1.33260009
  1.33260028  1.390866    1.60177246  1.62196253  1.64220601  1.64220602
  1.65835054  1.69600673  1.69600675  1.80940002  1.89550008  1.8955001
  1.9272409   1.95189209  1.9518921   2.03363039  2.0336304   2.04329001
  2.14500637  2.14500639  2.14989757  2.25500574  2.25500579  2.27845875
  2.33718548  2.42610673  2.42610678  2.44395355  2.44395379  2.54759013
  2.54759044  2.56581794  2.64832294  2.64832302  2.6804819   2.8862688
  2.90753036  2.9075305   2.95125542  2.95125561  3.07923007  3.14135156
  3.21353565  3.21353594  3.30774973  3.372161    3.37216134  3.40549534
  3.41588868  3.49806538  3.4980659   3.55829356  3.77687438  3.77687446
  3.8588385   4.03775356  4.03775356  4.03845757  4.14376107  4.14376159
  4.19304991  4.2008485   4.23951119  4.2395112   4.38390855  4.38390861
  4.46608481  4.47924394  4.51387099  4.70003982  4.70003983  4.72288367
  4.88609586  4.88609597  5.18140226  5.18140226  5.25529008  5.25529008
  5.33759688  5.53747894  5.67839217  5.67839272  5.68050586  5.78134878
  5.78134896  6.02238275  6.07278694  6.07278736  6.24624615  6.24624645
  6.28710655  6.28710661  6.29559252  6.45420254  6.53114039  6.55490575
  6.55490615  6.59437895  6.59437918  6.7313056   6.7313079   6.76411126
  6.92321341  7.04973383  7.04973499  7.07894981  7.43430959  7.43430962
  7.52294411  7.62758823  7.70595183  7.70595211  7.82259538  7.86418961
  7.86418973  8.01265353  8.03018554  8.03018563  8.06634878  8.06634895
  8.07551801  8.16933066  8.30055443  8.30055459  8.6376362   8.63763649
  8.68652887  8.71888604  8.71888673  8.77238368  8.80391756  8.80391809
  8.82976896  9.24167082  9.35235875  9.35235932  9.41413186  9.66458941
  9.66458961 10.37902816 10.43212601 10.43212631 10.55152592 10.6509226
 10.6509243  10.69624893 10.69625012 10.90088022 10.95869673 11.60497327
 11.60497332 12.15665396 12.90430811 12.90431302 17.92461549 20.72115623]
E1 = -74.19179786329941  E_coul = 32.38882918504215
Extra cycle  E= -21.9940150184145  delta_E= -6.94e-12  |g|= 1.38e-06  |ddm|= 9.43e-06
    CPU time for scf_cycle   1079.22 sec, wall time      8.96 sec
    CPU time for SCF   1079.23 sec, wall time      8.96 sec
converged SCF energy = -21.9940150184145
