#INFO: **** input file is /home/nkousuke/lustre/toBeSync/turboRVB/05turbo-genius-development/turbogenius_paper/04data/sanity_checks/03pyscf_HF_turbo_VMC_via_trexio/00open_boundary/results/NO/pyscf-HF-workflow/run.py ****

from pyscf_wrapper import Pyscf_wrapper

# input variables
pyscf_chkfile="pyscf.chk"
structure_file="NO.xyz"

# input variables
omp_num_threads=128
charge=0
spin=1
basis="ccecp-ccpvqz"
ecp="ccecp"
scf_method="HF"
dft_xc="NA"
solver_newton=False
MP2_flag=False
CCSD_flag=False
pyscf_output="out.pyscf"
twist_average=False
exp_to_discard=0.0
kpt=[0.0, 0.0, 0.0]
kpt_grid=[1, 1, 1]
smearing_method="fermi"
smearing_sigma=0.0

pyscf_calc=Pyscf_wrapper(
                        structure_file=structure_file,
                        chkfile=pyscf_chkfile,
                        )

pyscf_calc.run_pyscf(
                  omp_num_threads=omp_num_threads,
                  charge=charge,
                  spin=spin,
                  basis=basis,
                  ecp=ecp,
                  scf_method=scf_method,
                  dft_xc=dft_xc,
                  solver_newton=solver_newton,
                  MP2_flag=MP2_flag,
                  CCSD_flag=CCSD_flag,
                  pyscf_output=pyscf_output,
                  twist_average=twist_average,
                  exp_to_discard=exp_to_discard,
                  kpt=kpt,
                  kpt_grid=kpt_grid,
                  smearing_method=smearing_method,
                  smearing_sigma=smearing_sigma
                  )
                #INFO: ******************** input file end ********************


System: uname_result(system='Linux', node='spcc-238', release='5.4.0-66-generic', version='#74-Ubuntu SMP Wed Jan 27 22:54:38 UTC 2021', machine='x86_64', processor='x86_64')  Threads 128
Python 3.7.3 (default, Mar 27 2019, 22:11:17) 
[GCC 7.3.0]
numpy 1.20.1  scipy 1.7.3
Date: Mon Dec 19 18:07:01 2022
PySCF version 2.0.1
PySCF path  /home/nkousuke/application/anaconda3/lib/python3.7/site-packages/pyscf

[CONFIG] conf_file /home/nkousuke/.pyscf_conf.py
[INPUT] verbose = 5
[INPUT] max_memory = 506290.60546875 
[INPUT] num. atoms = 2
[INPUT] num. electrons = 11
[INPUT] charge = 0
[INPUT] spin (= nelec alpha-beta = 2S) = 1
[INPUT] symmetry False subgroup None
[INPUT] Mole.unit = A
[INPUT]  1 N      0.000000000000   0.000000000000  -0.613760000000 AA    0.000000000000   0.000000000000  -1.159838306213 Bohr
[INPUT]  2 O      0.000000000000   0.000000000000   0.537040000000 AA    0.000000000000   0.000000000000   1.014858517936 Bohr
[INPUT] ---------------- BASIS SET ---------------- 
[INPUT] l, kappa, [nprim/nctr], expnt,             c_1 c_2 ...
[INPUT] O
[INPUT] 0    0    [9    /1   ]  54.775216         -0.0012444
                                25.616801         0.010733
                                11.980245         0.0018889
                                6.992317          -0.1742537
                                2.620277          0.0017622
                                1.225429          0.3161846
                                0.577797          0.4512023
                                0.268022          0.3121534
                                0.125346          0.0511167
[INPUT] 0    0    [1    /1   ]  1.351771             1
[INPUT] 0    0    [1    /1   ]  0.843157             1
[INPUT] 0    0    [1    /1   ]  0.22438              1
[INPUT] 1    0    [9    /1   ]  22.217266         0.0104866
                                10.74755          0.0366435
                                5.315785          0.0803674
                                2.660761          0.162701
                                1.331816          0.2377791
                                0.678626          0.2811422
                                0.333673          0.2643189
                                0.167017          0.1466014
                                0.083598          0.0458145
[INPUT] 1    0    [1    /1   ]  1.106737             1
[INPUT] 1    0    [1    /1   ]  0.452364             1
[INPUT] 1    0    [1    /1   ]  0.148562             1
[INPUT] 2    0    [1    /1   ]  4.008867             1
[INPUT] 2    0    [1    /1   ]  1.344331             1
[INPUT] 2    0    [1    /1   ]  0.455711             1
[INPUT] 3    0    [1    /1   ]  2.763115             1
[INPUT] 3    0    [1    /1   ]  0.876289             1
[INPUT] 4    0    [1    /1   ]  1.759081             1
[INPUT] N
[INPUT] 0    0    [9    /1   ]  42.693822         -0.0009357
                                19.963207         0.0063295
                                9.3345971         0.0105038
                                4.9278187         -0.1653735
                                2.04092           -0.0005352
                                0.96708           0.2452063
                                0.476131          0.4582128
                                0.211443          0.3641224
                                0.098869          0.0620406
[INPUT] 0    0    [1    /1   ]  1.625001             1
[INPUT] 0    0    [1    /1   ]  0.310826             1
[INPUT] 0    0    [1    /1   ]  0.135764             1
[INPUT] 1    0    [9    /1   ]  18.925871         0.0073505
                                9.225603          0.0292844
                                4.581431          0.0652168
                                2.300164          0.1405153
                                1.154825          0.2328188
                                0.582039          0.2989556
                                0.290535          0.2802507
                                0.145867          0.1527995
                                0.073234          0.0355475
[INPUT] 1    0    [1    /1   ]  1.02075              1
[INPUT] 1    0    [1    /1   ]  0.413103             1
[INPUT] 1    0    [1    /1   ]  0.140736             1
[INPUT] 2    0    [1    /1   ]  3.028459             1
[INPUT] 2    0    [1    /1   ]  1.009895             1
[INPUT] 2    0    [1    /1   ]  0.346233             1
[INPUT] 3    0    [1    /1   ]  2.024747             1
[INPUT] 3    0    [1    /1   ]  0.691129             1
[INPUT] 4    0    [1    /1   ]  1.357512             1

nuclear repulsion = 13.7950263534932
number of shells = 28
number of NR pGTOs = 172
number of NR cGTOs = 108
basis = ccecp-ccpvqz
ecp = ccecp
CPU time:         4.54


******** <class 'pyscf.scf.rohf.ROHF'> ********
method = ROHF-RHF
initial guess = minao
damping factor = 0
level_shift factor = 0
DIIS = <class 'pyscf.scf.diis.CDIIS'>
diis_start_cycle = 1
diis_space = 8
SCF conv_tol = 1e-09
SCF conv_tol_grad = None
SCF max_cycles = 200
direct_scf = True
direct_scf_tol = 1e-13
chkfile to save SCF result = pyscf.chk
max_memory 506290 MB (current use 107 MB)
num. doubly occ = 5  num. singly occ = 1
Set gradient conv threshold to 3.16228e-05
E1 = -68.56484053265726  Ecoul = 29.578428642532916
init E= -25.1913855366311
cond(S) = 12137.018570731376
    CPU time for initialize scf    127.09 sec, wall time      1.24 sec

WARN: HOMO -0.0743290744736261 >= LUMO -0.0743290744736183

                  Roothaan           | alpha              | beta
  Highest 2-occ = -0.510705915322471 | -0.510705915322467 | -0.510705915322467
  Lowest 0-occ =  -0.0743290744736183 | -0.0743290744736207 | -0.0743290744736207
  1-occ =         -0.0743290744736261 | -0.0743290744736227 | -0.0743290744736227
  Roothaan mo_energy =
[-1.87622378 -0.90611687 -0.61482751 -0.61482751 -0.51070592 -0.07432907
 -0.07432907  0.24020893  0.36649663  0.42471357  0.42471357  0.44528873
  0.52566486  0.52566486  0.65343441  0.88145812  0.88145812  1.01978526
  1.09484369  1.09484369  1.35808115  1.35808115  1.37688011  1.56398712
  1.65209916  1.65209916  1.98728267  1.98728267  2.09584648  2.25551692
  2.25551692  2.43210998  2.64589764  2.64589764  2.73048664  2.77818669
  2.77818669  2.99700119  2.99700119  3.16200094  3.16200094  3.31749549
  3.37223581  3.37223581  3.49476815  3.49476815  3.81066732  4.084079
  4.084079    4.20073448  4.20073448  4.37331572  4.37331572  4.56544715
  5.19487779  5.25314071  5.25314071  6.34618074  6.78687555  6.78687555
  6.81718351  6.81718351  6.87961599  6.87961599  7.00651733  7.00651733
  7.12025897  7.23000851  7.23000851  7.82949404  8.07368822  8.07368822
  8.47567985  8.64464965  8.64464965  8.79499347  8.79499347  8.81901089
  8.81901089  8.91577695  8.91577695  9.1354701   9.1354701   9.15580322
  9.71663378  9.71663378 10.23334948 10.49903325 10.49903325 10.58720161
 10.58720161 11.28693882 11.28693882 11.40820499 11.69139561 11.69139561
 11.95795832 11.95795832 12.50935808 12.50935808 12.96722804 12.96722804
 13.45217851 14.56746121 14.56746121 14.59997483 18.07222242 32.75847324]
E1 = -68.45146793244416  Ecoul = 29.285943876219946
cycle= 1 E= -25.370497702731  delta_E= -0.179  |g|= 0.424  |ddm|= 1.81
    CPU time for cycle= 1     64.88 sec, wall time      0.53 sec
  HOMO = -0.185320098957986  LUMO = 0.038202196266302
                  Roothaan           | alpha              | beta
  Highest 2-occ = -0.686917698883515 | -0.693875016354519 | -0.642749711101779
  Lowest 0-occ =   0.038202196266302 | 0.0283059664757814 | 0.0480984260568116
  1-occ =         -0.185320098957986 | -0.439015309260113 |  0.105456983368009
  Roothaan mo_energy =
[-1.66179824 -0.95757749 -0.72094918 -0.71850137 -0.6869177  -0.1853201
  0.0382022   0.25609485  0.33903949  0.39881321  0.40830132  0.4471539
  0.5316341   0.53292138  0.6849686   0.83042184  0.83046581  1.0482529
  1.06441406  1.06813717  1.34751279  1.36986902  1.37040715  1.59647614
  1.67892538  1.68550225  1.90498082  1.91835568  2.01074749  2.26379401
  2.27218813  2.38356319  2.56376439  2.56377704  2.71878341  2.71920812
  2.78473754  2.91786619  2.93327482  3.04953892  3.04989971  3.26908151
  3.32486236  3.34372765  3.52444209  3.52444748  3.8102484   4.09465905
  4.09480103  4.27556165  4.27563244  4.43803094  4.45120563  4.59474351
  5.18866788  5.22977515  5.24878354  6.3504474   6.68166125  6.68166127
  6.68640115  6.68640761  6.7228558   6.74438887  7.03622017  7.05146742
  7.10083476  7.15614668  7.15643287  7.75983086  8.01513758  8.03837912
  8.42522034  8.55377651  8.57968051  8.64342834  8.64369367  8.78008799
  8.7803593   8.86424161  8.86424162  9.10995413  9.18419902  9.18420078
  9.55115802  9.55117724 10.27663728 10.44539503 10.46905454 10.47606391
 10.47664844 11.29995138 11.3194898  11.33184426 11.79937444 11.79937477
 12.0749529  12.07501451 12.60449419 12.62242733 13.09084689 13.09090263
 13.48779332 14.62603363 14.62942747 14.64699005 17.92602966 32.92862851]
E1 = -68.79900271972154  Ecoul = 29.618504570306087
cycle= 2 E= -25.3854717959222  delta_E= -0.015  |g|= 0.358  |ddm|= 0.653
    CPU time for cycle= 2    134.16 sec, wall time      1.06 sec
  HOMO = -0.134391785463976  LUMO = 0.0795403342906682
                  Roothaan           | alpha              | beta
  Highest 2-occ = -0.678232854498686 | -0.669451098066451 | -0.622107627050552
  Lowest 0-occ =  0.0795403342906682 |  0.100958605572422 |  0.120547577004975
  1-occ =         -0.134391785463976 | -0.385249638792249 |  0.190096807503674
  Roothaan mo_energy =
[-1.63930923 -0.94784507 -0.71550625 -0.68486282 -0.67823285 -0.13439179
  0.07954033  0.25072288  0.37054282  0.41392097  0.4173114   0.44476613
  0.52738231  0.54060472  0.72567727  0.86512207  0.86520221  1.02808304
  1.09477181  1.09853344  1.35990114  1.36036245  1.38407574  1.58294768
  1.66383297  1.66849844  1.97004495  1.97687788  2.09330162  2.2544138
  2.26253182  2.42484578  2.62192468  2.62193382  2.75564773  2.76357499
  2.76404799  2.98203963  2.99619682  3.14234054  3.14277094  3.32351499
  3.36990207  3.38772677  3.50047045  3.50047602  3.82483711  4.08839414
  4.08848444  4.22513931  4.22526654  4.39623124  4.40948483  4.58433978
  5.20950139  5.25334772  5.27226729  6.36737426  6.76869765  6.76870615
  6.78038285  6.78038288  6.85438102  6.87312551  7.00852245  7.02453752
  7.13692979  7.22012333  7.22041442  7.82642683  8.05917576  8.08308912
  8.49419865  8.64734694  8.67361783  8.77949983  8.77960399  8.81278994
  8.81278994  8.90778737  8.9077986   9.15334031  9.15334327  9.17129094
  9.68418332  9.68420177 10.26601863 10.50163933 10.50219715 10.56256502
 10.58691222 11.30225547 11.32260234 11.41007332 11.72270269 11.72270307
 12.0001343  12.00021792 12.54129367 12.5603928  13.00373829 13.00379001
 13.48091727 14.59207703 14.61077122 14.63158261 18.05514773 32.81075267]
E1 = -68.93777202092147  Ecoul = 29.73200769867536
cycle= 3 E= -25.4107379687529  delta_E= -0.0253  |g|= 0.0954  |ddm|= 0.319
    CPU time for cycle= 3     90.38 sec, wall time      0.71 sec
  HOMO = -0.121305114956698  LUMO = 0.0925475831320779
                  Roothaan           | alpha              | beta
  Highest 2-occ =  -0.65455827706984 | -0.653571487205941 | -0.605654567986299
  Lowest 0-occ =  0.0925475831320779 |  0.082374744418593 |  0.102171942304214
  1-occ =         -0.121305114956698 | -0.414436078892382 |  0.168560477792769
  Roothaan mo_energy =
[-1.60931487 -0.92802737 -0.69343996 -0.67620553 -0.65455828 -0.12130511
  0.09254758  0.25563246  0.36990733  0.41951151  0.42104111  0.44860631
  0.52747339  0.54678281  0.74285893  0.8709398   0.87100817  1.03981532
  1.09970053  1.10338459  1.37233342  1.37293539  1.39036004  1.59949828
  1.6760762   1.68007209  1.97898145  1.98443466  2.09062252  2.2741575
  2.27969267  2.43730855  2.62599601  2.62600231  2.77119859  2.77355329
  2.77423099  2.99219082  3.00618139  3.14346019  3.14384544  3.32764563
  3.37540798  3.39282683  3.52099256  3.52099914  3.8412245   4.11174647
  4.1118495   4.25136236  4.25145491  4.42131246  4.43426799  4.61513938
  5.22849316  5.26937286  5.2881101   6.38964877  6.77621778  6.77622436
  6.78267001  6.78267003  6.8641413   6.88301904  7.04321986  7.0583555
  7.15592073  7.23541277  7.2356936   7.84759392  8.08355714  8.10718999
  8.5091808   8.65264054  8.67896622  8.78233361  8.78244511  8.84632711
  8.84632712  8.90941613  8.90947555  9.18368971  9.18369235  9.18921051
  9.69340854  9.69342431 10.29118949 10.52563848 10.52620393 10.57561715
 10.60009485 11.33196782 11.35265563 11.43506057 11.76848911 11.7684898
 12.04364104 12.04372978 12.58376473 12.60373399 13.05608115 13.0561415
 13.52309266 14.63389699 14.65321649 14.66210749 18.07450264 32.87764483]
E1 = -68.83519584031964  Ecoul = 29.627678525776382
cycle= 4 E= -25.41249096105  delta_E= -0.00175  |g|= 0.0145  |ddm|= 0.0705
    CPU time for cycle= 4     95.39 sec, wall time      0.77 sec
  HOMO = -0.124198480819712  LUMO = 0.0910285613919887
                  Roothaan           | alpha              | beta
  Highest 2-occ = -0.656880712737991 |  -0.66471529151524 | -0.619181152510504
  Lowest 0-occ =  0.0910285613919887 | 0.0804526605505179 |  0.100269967126061
  1-occ =         -0.124198480819712 | -0.418048733471456 |  0.168355147848078
  Roothaan mo_energy =
[-1.61369329 -0.93032012 -0.69834696 -0.68064657 -0.65688071 -0.12419848
  0.09102856  0.25560092  0.36944499  0.41934114  0.41972924  0.44812674
  0.52619374  0.54633153  0.7401687   0.86952206  0.86960157  1.03920052
  1.09859625  1.10189432  1.37152709  1.37213366  1.38858359  1.59764123
  1.67536048  1.67915351  1.97675603  1.981118    2.0884809   2.27233571
  2.27700352  2.43515073  2.62388676  2.6238948   2.76948179  2.77147508
  2.77227043  2.98936016  3.00301599  3.14046504  3.14082658  3.32546443
  3.37377579  3.39072369  3.51999448  3.52000122  3.83872188  4.10925151
  4.10934249  4.24938573  4.24948223  4.41904115  4.43211952  4.6111218
  5.22540562  5.26668371  5.28538225  6.38598434  6.77306366  6.77307021
  6.7790928   6.77909281  6.85918508  6.87752679  7.03775333  7.05279941
  7.15117633  7.2320898   7.2323604   7.84309715  8.07915855  8.10258011
  8.50441978  8.64942782  8.67547865  8.77728635  8.7773924   8.84399048
  8.84399049  8.90539118  8.90543874  9.18087319  9.18087592  9.18520392
  9.68798948  9.68800482 10.28734214 10.52157257 10.52214476 10.57084356
 10.5951113  11.3269776  11.34807355 11.42958041 11.76336906 11.76336952
 12.03859623 12.0386936  12.57786887 12.59890818 13.04905947 13.04912995
 13.51606303 14.62704496 14.64706458 14.65662761 18.06789153 32.8670971 ]
E1 = -68.85310988068507  Ecoul = 29.645313348408692
cycle= 5 E= -25.4127701787832  delta_E= -0.000279  |g|= 0.00981  |ddm|= 0.0356
    CPU time for cycle= 5     88.09 sec, wall time      0.73 sec
  HOMO = -0.123616170778664  LUMO = 0.0919009438022537
                  Roothaan           | alpha              | beta
  Highest 2-occ = -0.654542988477428 | -0.661989807537337 | -0.619284671105897
  Lowest 0-occ =  0.0919009438022537 | 0.0815461992760707 |  0.101421290604127
  1-occ =         -0.123616170778664 | -0.420372391984352 |  0.171013341005158
  Roothaan mo_energy =
[-1.61190785 -0.92849181 -0.69690446 -0.67954568 -0.65454299 -0.12361617
  0.09190094  0.2559809   0.36934589  0.41955196  0.41955384  0.44838201
  0.52610061  0.54689125  0.74131766  0.86947914  0.86957926  1.04008931
  1.09888216  1.10194573  1.37222416  1.37281872  1.38883972  1.59884834
  1.67635105  1.68007713  1.97733976  1.98112802  2.08887232  2.27362439
  2.27787926  2.43565169  2.62341214  2.623424    2.77056248  2.77163288
  2.77290184  2.99003412  3.00350552  3.14043183  3.14078524  3.32595508
  3.37439019  3.39094378  3.52126696  3.52127307  3.83985146  4.1104738
  4.11056064  4.25140196  4.25150914  4.42070026  4.43420923  4.61314054
  5.22681663  5.26776147  5.28654789  6.38797233  6.77311495  6.77312112
  6.778535    6.77853502  6.86086039  6.87869459  7.04023969  7.05541116
  7.1535302   7.23265782  7.23291095  7.84412997  8.08058687  8.10393068
  8.50638753  8.65089241  8.67651246  8.77744566  8.77754192  8.84627668
  8.84627669  8.90610772  8.90615029  9.18274541  9.18274828  9.18683183
  9.68901147  9.68902878 10.28969133 10.52310897 10.52369219 10.57245231
 10.59639434 11.32911134 11.35070812 11.43155776 11.76672641 11.76672666
 12.04175157 12.04185796 12.5801806  12.60242347 13.05296468 13.05304829
 13.519218   14.6297319  14.65051552 14.65928625 18.07033187 32.87240271]
E1 = -68.84725138745412  Ecoul = 29.63930922875595
cycle= 6 E= -25.4129158052049  delta_E= -0.000146  |g|= 0.00435  |ddm|= 0.027
    CPU time for cycle= 6     66.95 sec, wall time      0.53 sec
  HOMO = -0.124838657868055  LUMO = 0.0913243525545019
                  Roothaan           | alpha              | beta
  Highest 2-occ = -0.654330807780384 | -0.661817183732942 | -0.622137448581916
  Lowest 0-occ =  0.0913243525545019 | 0.0812934230909567 |  0.101230261694329
  1-occ =         -0.124838657868055 |  -0.42274141819511 |  0.172385503876344
  Roothaan mo_energy =
[-1.6123397  -0.92891785 -0.69731836 -0.68017499 -0.65433081 -0.12483866
  0.09132435  0.2560358   0.36894622  0.4193502   0.41936455  0.44840634
  0.52609221  0.54676971  0.74067752  0.86913598  0.86925114  1.04020355
  1.09858669  1.10137171  1.37223661  1.3728212   1.3883673   1.59883505
  1.67635792  1.6801254   1.97670313  1.98032643  2.08788509  2.27357347
  2.27764954  2.4351981   2.62276363  2.62277764  2.77022492  2.77117558
  2.77273611  2.9893724   3.00270553  3.13941608  3.13975982  3.32519134
  3.3739804   3.39016914  3.52148511  3.5214907   3.8394423   4.11036953
  4.11045018  4.25154525  4.25166009  4.42050163  4.4343623   4.61289045
  5.22630618  5.26731242  5.28611849  6.38743725  6.77223465  6.77224058
  6.77746351  6.77746352  6.85970744  6.87708803  7.03972266  7.05498807
  7.15258285  7.23197921  7.23221742  7.8432866   8.07997965  8.10317434
  8.50523188  8.64998082  8.67510168  8.77599351  8.77607899  8.84663399
  8.84663401  8.90469981  8.90473524  9.18278297  9.18278591  9.1859358
  9.68765794  9.6876763  10.28911836 10.52257405 10.52316021 10.57145952
 10.59496295 11.3283417  11.35026677 11.43056966 11.76684675 11.76684742
 12.04165819 12.04177207 12.57945105 12.60263318 13.0528051  13.05290017
 13.51845678 14.62889673 14.65022609 14.65845432 18.06880198 32.87174457]
E1 = -68.84914912906268  Ecoul = 29.64116752382091
cycle= 7 E= -25.4129552517485  delta_E= -3.94e-05  |g|= 0.00121  |ddm|= 0.0206
    CPU time for cycle= 7     96.37 sec, wall time      0.82 sec
  HOMO = -0.124549372148958  LUMO = 0.0916491272987477
                  Roothaan           | alpha              | beta
  Highest 2-occ = -0.653998096071075 | -0.661135768575487 | -0.623822808332322
  Lowest 0-occ =  0.0916491272987477 | 0.0816026110395614 |    0.1015848154958
  1-occ =         -0.124549372148958 | -0.423089641364922 |  0.173868744408776
  Roothaan mo_energy =
[-1.61207681 -0.92869138 -0.69703743 -0.67978272 -0.6539981  -0.12454937
  0.09164913  0.25605847  0.36912494  0.41941334  0.41943592  0.44846501
  0.5260508   0.54690194  0.74101653  0.86938096  0.86949761  1.04023936
  1.09885218  1.10157573  1.37234136  1.37291577  1.38861949  1.59894041
  1.67643253  1.6802072   1.97709854  1.9806928   2.08833125  2.27378486
  2.27777938  2.43550412  2.62316275  2.62317727  2.77041152  2.77149143
  2.77297294  2.98979177  3.00308763  3.13994791  3.14028949  3.32554914
  3.37431294  3.39043951  3.52153823  3.52154394  3.8397089   4.11055249
  4.11063182  4.25161627  4.25173163  4.42062244  4.43451563  4.61311546
  5.22662437  5.26761381  5.28641057  6.38772318  6.77274922  6.77275512
  6.77810408  6.77810409  6.86038291  6.87768111  7.04001145  7.05526903
  7.15301831  7.23240296  7.23263898  7.84372509  8.08039043  8.10354198
  8.50574514  8.65054518  8.675585    8.77674964  8.77683295  8.84666129
  8.8466613   8.90535316  8.90538645  9.18293571  9.18293866  9.1863412
  9.68834657  9.68836502 10.28944782 10.52293787 10.52352372 10.57206941
 10.59549262 11.32866517 11.35062399 11.43103132 11.76694464 11.76694527
 12.0418319  12.04194699 12.57962088 12.60293518 13.05297469 13.05307133
 13.51883646 14.62918317 14.65058256 14.65885432 18.06944361 32.87202452]
E1 = -68.84844612996126  Ecoul = 29.640463311689338
cycle= 8 E= -25.4129564647787  delta_E= -1.21e-06  |g|= 0.00036  |ddm|= 0.0028
    CPU time for cycle= 8     81.49 sec, wall time      0.66 sec
  HOMO = -0.124645623178616  LUMO = 0.09155294727277
                  Roothaan           | alpha              | beta
  Highest 2-occ = -0.654063500020977 | -0.661120940899824 |  -0.62402450808131
  Lowest 0-occ =    0.09155294727277 | 0.0815567757029756 |  0.101541846072789
  1-occ =         -0.124645623178616 | -0.423170871062605 |  0.173867876683967
  Roothaan mo_energy =
[-1.61220815 -0.92881082 -0.69719952 -0.67987641 -0.6540635  -0.12464562
  0.09155295  0.25602219  0.3691187   0.41939457  0.41940013  0.44842476
  0.52604205  0.54686209  0.74091125  0.86933403  0.86945137  1.04015825
  1.09881116  1.10153622  1.37225836  1.37283096  1.38857451  1.59883247
  1.67634174  1.68011892  1.97702154  1.98061169  2.0882843   2.27368652
  2.27767215  2.43541779  2.62312653  2.62314106  2.77031116  2.77141869
  2.7728863   2.98970323  3.003001    3.13989307  3.14023473  3.32547971
  3.37424999  3.39036958  3.52139724  3.52140291  3.83959895  4.11042228
  4.11050132  4.25145366  4.25156937  4.42046622  4.43437475  4.61295884
  5.22650116  5.26749648  5.28629793  6.38757872  6.77266903  6.77267495
  6.77805928  6.77805929  6.86026654  6.877551    7.03984543  7.0551083
  7.1528694   7.23229367  7.23252925  7.84360777  8.08025207  8.10340279
  8.50560823  8.65043591  8.67546244  8.77666777  8.77675074  8.84645072
  8.84645073  8.90525254  8.90528542  9.18276035  9.1827633   9.18619555
  9.68822576  9.68824426 10.28928093 10.52279149 10.52337761 10.571931
 10.5953426  11.32849254 11.35046707 11.43087708 11.76670638 11.76670705
 12.04162558 12.04174103 12.57942145 12.60277535 13.05274324 13.05284032
 13.51866599 14.62898967 14.65041439 14.65869481 18.06928671 32.87180423]
E1 = -68.8485638829068  Ecoul = 29.64058097053094
cycle= 9 E= -25.4129565588826  delta_E= -9.41e-08  |g|= 5.41e-05  |ddm|= 0.000823
    CPU time for cycle= 9     86.22 sec, wall time      0.70 sec
  HOMO = -0.124631821583512  LUMO = 0.0915629404655968
                  Roothaan           | alpha              | beta
  Highest 2-occ =  -0.65405466882854 | -0.661089830019993 | -0.624037648723322
  Lowest 0-occ =  0.0915629404655968 | 0.0815728992415462 |  0.101557649217496
  1-occ =         -0.124631821583512 | -0.423153894568135 |  0.173892627489408
  Roothaan mo_energy =
[-1.61220395 -0.92880954 -0.69720171 -0.67987449 -0.65405467 -0.12463182
  0.09156294  0.25602158  0.36912503  0.41939744  0.41939976  0.44842412
  0.52604144  0.54686653  0.74092088  0.86934014  0.86945738  1.04015542
  1.09881935  1.10154224  1.37225834  1.37283051  1.38858232  1.59883051
  1.67634119  1.68011849  1.97703241  1.98062168  2.08829746  2.27369012
  2.27767549  2.43542564  2.62313823  2.62315274  2.77031291  2.77142663
  2.77289042  2.98971475  3.00301169  3.13990941  3.14025081  3.32549008
  3.37425901  3.39037684  3.52139346  3.52139913  3.83960478  4.11042303
  4.11050205  4.25145019  4.25156595  4.42046487  4.43437528  4.61296011
  5.22650804  5.26750182  5.28630405  6.38758394  6.77268341  6.77268932
  6.77807792  6.77807793  6.86028459  6.87756741  7.03984787  7.05511204
  7.15287934  7.23230423  7.2325398   7.84361873  8.08026     8.10341153
  8.50562311  8.65045354  8.6754782   8.77668931  8.77677225  8.84644258
  8.84644259  8.90527264  8.90530541  9.18275885  9.18276181  9.18620621
  9.68824398  9.68826247 10.28928843 10.52279875 10.52338492 10.5719462
 10.59535685 11.32849857 11.35047551 11.43088782 11.76669835 11.76669902
 12.04162401 12.04173951 12.57942118 12.60278081 13.05273792 13.05283505
 13.51867316 14.62899227 14.6504212  14.6587055  18.06930287 32.87180286]
E1 = -68.8485342574146  Ecoul = 29.640551343291982
cycle= 10 E= -25.4129565606294  delta_E= -1.75e-09  |g|= 5.77e-06  |ddm|= 0.00012
    CPU time for cycle= 10     39.33 sec, wall time      0.35 sec
  HOMO = -0.124631198273974  LUMO = 0.0915640318917379
                  Roothaan           | alpha              | beta
  Highest 2-occ =  -0.65405278454354 | -0.661088374028885 | -0.624043833486809
  Lowest 0-occ =  0.0915640318917379 | 0.0815715414240065 |  0.101556316958983
  1-occ =         -0.124631198273974 | -0.423154316127852 |  0.173891939576296
  Roothaan mo_energy =
[-1.61220283 -0.92880902 -0.69719946 -0.67987412 -0.65405278 -0.1246312
  0.09156403  0.25602176  0.36912534  0.41939825  0.41940031  0.44842426
  0.52604096  0.54686712  0.74092193  0.86934124  0.86945847  1.04015562
  1.09882029  1.10154303  1.37225905  1.37283123  1.38858313  1.59883075
  1.67634176  1.68011872  1.97703388  1.98062331  2.08829841  2.27369123
  2.27767622  2.43542682  2.62313987  2.62315438  2.77031367  2.7714279
  2.7728912   2.98971613  3.0030128   3.13991114  3.14025255  3.32549117
  3.37425998  3.39037766  3.5213942   3.52139987  3.83960579  4.1104239
  4.11050293  4.25145097  4.25156672  4.4204659   4.43437599  4.61296082
  5.22650909  5.26750288  5.28630492  6.38758479  6.77268522  6.77269114
  6.77808016  6.77808017  6.86028612  6.87756896  7.03984888  7.05511283
  7.15288042  7.23230568  7.23254125  7.84361999  8.08026123  8.10341271
  8.50562456  8.65045517  8.67547978  8.77669152  8.77677446  8.84644308
  8.84644309  8.90527456  8.90530732  9.18275974  9.1827627   9.18620739
  9.68824573  9.68826422 10.28928989 10.52279999 10.52338615 10.57194752
 10.59535819 11.32849989 11.35047661 11.43088879 11.76669868 11.76669935
 12.04162485 12.04174035 12.57942237 12.6027817  13.05273833 13.05283545
 13.51867406 14.62899334 14.65042213 14.65870685 18.06930397 32.87180344]
E1 = -68.84853310143322  Ecoul = 29.640550187292877
cycle= 11 E= -25.4129565606471  delta_E= -1.77e-11  |g|= 8.79e-07  |ddm|= 1.23e-05
    CPU time for cycle= 11    147.47 sec, wall time      1.19 sec
  HOMO = -0.124631179325995  LUMO = 0.0915639424965641
                  Roothaan           | alpha              | beta
  Highest 2-occ = -0.654052905372635 | -0.661088369775815 | -0.624043363069868
  Lowest 0-occ =  0.0915639424965641 | 0.0815715649128771 |  0.101556320080247
  1-occ =         -0.124631179325995 | -0.423153973676673 |  0.173891592811377
  Roothaan mo_energy =
[-1.61220306 -0.92880928 -0.69719983 -0.67987431 -0.65405291 -0.12463118
  0.09156394  0.25602173  0.36912529  0.41939826  0.41940032  0.44842423
  0.52604102  0.54686709  0.74092178  0.86934121  0.86945844  1.04015552
  1.09882024  1.10154298  1.37225898  1.37283115  1.38858307  1.59883061
  1.67634167  1.68011861  1.97703383  1.98062322  2.08829834  2.27369111
  2.27767608  2.43542674  2.62313986  2.62315437  2.77031355  2.77142784
  2.77289109  2.98971605  3.00301271  3.13991111  3.14025251  3.3254911
  3.37425991  3.39037758  3.52139408  3.52139975  3.83960563  4.11042375
  4.11050278  4.25145075  4.25156651  4.42046569  4.43437577  4.61296058
  5.22650892  5.26750274  5.28630477  6.38758455  6.77268516  6.77269108
  6.77808014  6.77808015  6.86028597  6.8775688   7.03984856  7.0551125
  7.15288015  7.23230558  7.23254115  7.84361984  8.08026105  8.10341252
  8.50562435  8.65045505  8.67547965  8.77669145  8.77677439  8.84644284
  8.84644285  8.90527448  8.90530724  9.18275952  9.18276248  9.1862072
  9.6882456   9.68826408 10.28928961 10.5227998  10.52338595 10.57194736
 10.59535803 11.32849962 11.35047633 11.43088858 11.76669827 11.76669894
 12.04162446 12.04173996 12.579422   12.60278133 13.05273784 13.05283497
 13.51867368 14.62899295 14.65042174 14.65870654 18.06930373 32.87180277]
E1 = -68.8485343501803  Ecoul = 29.64055143603968
Extra cycle  E= -25.4129565606474  delta_E= -2.77e-13  |g|= 4.99e-07  |ddm|= 1.66e-06
    CPU time for scf_cycle   1203.36 sec, wall time      9.97 sec
    CPU time for SCF   1203.43 sec, wall time      9.98 sec
converged SCF energy = -25.4129565606474
