#INFO: **** input file is /home/nkousuke/lustre/toBeSync/turboRVB/05turbo-genius-development/turbogenius_paper/04data/sanity_checks/03pyscf_HF_turbo_VMC_via_trexio/00open_boundary/results/O2+/pyscf-HF-workflow/run.py ****

from pyscf_wrapper import Pyscf_wrapper

# input variables
pyscf_chkfile="pyscf.chk"
structure_file="O2.xyz"

# input variables
omp_num_threads=128
charge=1
spin=1
basis="ccecp-ccpvqz"
ecp="ccecp"
scf_method="HF"
dft_xc="NA"
solver_newton=False
MP2_flag=False
CCSD_flag=False
pyscf_output="out.pyscf"
twist_average=False
exp_to_discard=0.0
kpt=[0.0, 0.0, 0.0]
kpt_grid=[1, 1, 1]
smearing_method="fermi"
smearing_sigma=0.0

pyscf_calc=Pyscf_wrapper(
                        structure_file=structure_file,
                        chkfile=pyscf_chkfile,
                        )

pyscf_calc.run_pyscf(
                  omp_num_threads=omp_num_threads,
                  charge=charge,
                  spin=spin,
                  basis=basis,
                  ecp=ecp,
                  scf_method=scf_method,
                  dft_xc=dft_xc,
                  solver_newton=solver_newton,
                  MP2_flag=MP2_flag,
                  CCSD_flag=CCSD_flag,
                  pyscf_output=pyscf_output,
                  twist_average=twist_average,
                  exp_to_discard=exp_to_discard,
                  kpt=kpt,
                  kpt_grid=kpt_grid,
                  smearing_method=smearing_method,
                  smearing_sigma=smearing_sigma
                  )
                #INFO: ******************** input file end ********************


System: uname_result(system='Linux', node='spcc-145', release='5.4.0-66-generic', version='#74-Ubuntu SMP Wed Jan 27 22:54:38 UTC 2021', machine='x86_64', processor='x86_64')  Threads 128
Python 3.7.3 (default, Mar 27 2019, 22:11:17) 
[GCC 7.3.0]
numpy 1.20.1  scipy 1.7.3
Date: Mon Dec 19 18:03:12 2022
PySCF version 2.0.1
PySCF path  /home/nkousuke/application/anaconda3/lib/python3.7/site-packages/pyscf

[CONFIG] conf_file /home/nkousuke/.pyscf_conf.py
[INPUT] verbose = 5
[INPUT] max_memory = 506597.3671875 
[INPUT] num. atoms = 2
[INPUT] num. electrons = 11
[INPUT] charge = 1
[INPUT] spin (= nelec alpha-beta = 2S) = 1
[INPUT] symmetry False subgroup None
[INPUT] Mole.unit = A
[INPUT]  1 O      0.000000000000   0.000000000000   0.603850000000 AA    0.000000000000   0.000000000000   1.141111120319 Bohr
[INPUT]  2 O      0.000000000000   0.000000000000  -0.603850000000 AA    0.000000000000   0.000000000000  -1.141111120319 Bohr
[INPUT] ---------------- BASIS SET ---------------- 
[INPUT] l, kappa, [nprim/nctr], expnt,             c_1 c_2 ...
[INPUT] O
[INPUT] 0    0    [9    /1   ]  54.775216         -0.0012444
                                25.616801         0.010733
                                11.980245         0.0018889
                                6.992317          -0.1742537
                                2.620277          0.0017622
                                1.225429          0.3161846
                                0.577797          0.4512023
                                0.268022          0.3121534
                                0.125346          0.0511167
[INPUT] 0    0    [1    /1   ]  1.351771             1
[INPUT] 0    0    [1    /1   ]  0.843157             1
[INPUT] 0    0    [1    /1   ]  0.22438              1
[INPUT] 1    0    [9    /1   ]  22.217266         0.0104866
                                10.74755          0.0366435
                                5.315785          0.0803674
                                2.660761          0.162701
                                1.331816          0.2377791
                                0.678626          0.2811422
                                0.333673          0.2643189
                                0.167017          0.1466014
                                0.083598          0.0458145
[INPUT] 1    0    [1    /1   ]  1.106737             1
[INPUT] 1    0    [1    /1   ]  0.452364             1
[INPUT] 1    0    [1    /1   ]  0.148562             1
[INPUT] 2    0    [1    /1   ]  4.008867             1
[INPUT] 2    0    [1    /1   ]  1.344331             1
[INPUT] 2    0    [1    /1   ]  0.455711             1
[INPUT] 3    0    [1    /1   ]  2.763115             1
[INPUT] 3    0    [1    /1   ]  0.876289             1
[INPUT] 4    0    [1    /1   ]  1.759081             1

nuclear repulsion = 15.7740991911236
number of shells = 28
number of NR pGTOs = 172
number of NR cGTOs = 108
basis = ccecp-ccpvqz
ecp = ccecp
CPU time:         4.44


******** <class 'pyscf.scf.rohf.ROHF'> ********
method = ROHF-RHF
initial guess = minao
damping factor = 0
level_shift factor = 0
DIIS = <class 'pyscf.scf.diis.CDIIS'>
diis_start_cycle = 1
diis_space = 8
SCF conv_tol = 1e-09
SCF conv_tol_grad = None
SCF max_cycles = 200
direct_scf = True
direct_scf_tol = 1e-13
chkfile to save SCF result = pyscf.chk
max_memory 506597 MB (current use 106 MB)
num. doubly occ = 5  num. singly occ = 1
Set gradient conv threshold to 3.16228e-05
E1 = -83.23188646302017  Ecoul = 36.23017289760689
init E= -31.2276143742897
cond(S) = 8414.286590890144
    CPU time for initialize scf     99.26 sec, wall time      0.91 sec

WARN: HOMO -0.231807320700335 >= LUMO -0.231807320700337

                  Roothaan           | alpha              | beta
  Highest 2-occ = -0.644598523733035 | -0.644598523733035 | -0.644598523733035
  Lowest 0-occ =  -0.231807320700337 | -0.231807320700334 | -0.231807320700334
  1-occ =         -0.231807320700335 | -0.231807320700335 | -0.231807320700335
  Roothaan mo_energy =
[-1.9202824  -1.09901258 -0.65237771 -0.65237771 -0.64459852 -0.23180732
 -0.23180732  0.21755945  0.42701269  0.42701269  0.45295983  0.46172469
  0.51995684  0.51995684  0.69506901  1.02483507  1.05793315  1.05793315
  1.24442332  1.24442332  1.43994809  1.43994809  1.63780814  1.65535946
  1.7727215   1.7727215   2.01340908  2.01340908  2.31213649  2.31213649
  2.40397857  2.6973253   3.17143888  3.17143888  3.21536846  3.21536846
  3.3822047   3.3822047   3.62427256  3.62427256  3.77964103  4.05327207
  4.07185117  4.07185117  4.21111782  4.21111782  4.23272437  4.23272437
  4.32681093  4.32681093  4.496331    4.496331    4.60822244  4.74197395
  5.24618179  5.47597215  5.47597215  6.8099455   7.00471339  7.00471339
  7.2062376   7.2062376   7.39336368  8.22953048  8.22953048  8.34709913
  8.34709913  8.62859613  8.71545575  8.71545575  8.87553604  8.87553604
  8.90557341  8.90557341  9.16535878  9.35374634  9.35374634 10.53415588
 10.53415588 10.65001473 10.77903439 10.77903439 11.61328463 11.61328463
 11.72561836 11.72561836 11.76711988 11.76711988 12.07217257 12.07217257
 12.31119148 12.31119148 12.35725928 12.41224688 12.51717675 12.51717675
 12.8244383  12.8244383  12.88103987 12.88103987 13.02642935 13.02642935
 14.11146429 14.8150553  14.8150553  16.38106466 32.68384649 32.83595705]
E1 = -76.46732055507883  Ecoul = 29.863301777460272
cycle= 1 E= -30.8299195864949  delta_E= 0.398  |g|= 0.684  |ddm|= 1.79
    CPU time for cycle= 1    132.12 sec, wall time      1.13 sec
  HOMO = -0.822346558253707  LUMO = -0.561400923520316
                  Roothaan           | alpha              | beta
  Highest 2-occ =  -1.24820179299316 |  -1.25735964405149 |  -1.19485497324378
  Lowest 0-occ =  -0.561400923520316 | -0.572885834886096 |  -0.54991601215454
  1-occ =         -0.822346558253707 |  -1.10879592216911 | -0.495977198708535
  Roothaan mo_energy =
[-2.32563862 -1.67612417 -1.32731461 -1.30213556 -1.24820179 -0.82234656
 -0.56140092 -0.14579054  0.09029166  0.09376613  0.09589783  0.16321905
  0.22053815  0.23432619  0.27554771  0.60319501  0.60349488  0.69096143
  0.79096414  0.79230088  1.02178447  1.02178659  1.21697898  1.25909107
  1.37721889  1.3851728   1.52088106  1.52831522  1.83004896  1.84408507
  1.8911514   2.30096289  2.65654775  2.656721    2.71531846  2.71533595
  2.79771691  2.81389799  3.13928461  3.13930151  3.19917068  3.5152395
  3.51536396  3.58679255  3.64300468  3.64306719  3.73503911  3.74926557
  3.85874844  3.85933988  3.99298691  4.01056568  4.06967366  4.15886951
  4.70419191  4.95025531  4.97134538  6.28739843  6.36552673  6.38244465
  6.5628941   6.58001845  6.79078703  7.64289578  7.64305542  7.77680405
  7.77681216  7.97014923  8.14648128  8.14648137  8.25932962  8.28547046
  8.30775872  8.30775872  8.50907988  8.77654626  8.77654683  9.92355892
  9.92432461 10.11083197 10.18604159 10.21047029 10.97052677 10.97052809
 11.08773482 11.08784335 11.13403287 11.13403443 11.47082245 11.47145395
 11.66290036 11.66341361 11.68805714 11.8370906  11.8503589  11.875173
 12.14883484 12.14918018 12.24365748 12.26712701 12.34896277 12.34904089
 13.43516053 14.14133569 14.16445989 15.69224741 31.92669366 32.08812791]
E1 = -78.32018510140786  Ecoul = 31.612242888990565
cycle= 2 E= -30.9338430212937  delta_E= -0.104  |g|= 0.217  |ddm|= 0.86
    CPU time for cycle= 2     53.73 sec, wall time      0.43 sec
  HOMO = -0.681663787893702  LUMO = -0.427660923191737
                  Roothaan           | alpha              | beta
  Highest 2-occ =  -1.11625459964544 |  -1.09536204394859 |  -1.02922718054707
  Lowest 0-occ =  -0.427660923191737 | -0.409044945873689 | -0.385092266719065
  1-occ =         -0.681663787893702 |  -0.97988803986473 |  -0.32284069146263
  Roothaan mo_energy =
[-2.15385761e+00 -1.56619863e+00 -1.20371289e+00 -1.17689535e+00
 -1.11625460e+00 -6.81663788e-01 -4.27660923e-01 -3.06764416e-02
  1.21416863e-01  1.23419213e-01  1.60076617e-01  1.82633284e-01
  2.38315630e-01  2.45221298e-01  3.33289583e-01  6.73238037e-01
  6.73519503e-01  7.19811831e-01  8.65010721e-01  8.68410735e-01
  1.07531612e+00  1.07532139e+00  1.28525819e+00  1.30419606e+00
  1.42525395e+00  1.42785127e+00  1.61614617e+00  1.61686315e+00
  1.91353965e+00  1.92020914e+00  1.99317981e+00  2.34803245e+00
  2.74972936e+00  2.74990203e+00  2.79797444e+00  2.79798134e+00
  2.92740742e+00  2.94324353e+00  3.21436388e+00  3.21437840e+00
  3.34196080e+00  3.63566129e+00  3.63577677e+00  3.65792901e+00
  3.77109621e+00  3.77118442e+00  3.83080850e+00  3.84374427e+00
  3.92798534e+00  3.92851419e+00  4.08232357e+00  4.09887006e+00
  4.19091306e+00  4.30530798e+00  4.82566837e+00  5.04827786e+00
  5.06857779e+00  6.40279943e+00  6.54464750e+00  6.55932609e+00
  6.74447229e+00  6.75928147e+00  6.95443365e+00  7.77961286e+00
  7.77976287e+00  7.90134417e+00  7.90135141e+00  8.16636631e+00
  8.26644320e+00  8.26644330e+00  8.42589836e+00  8.42711374e+00
  8.42711374e+00  8.45257737e+00  8.69065732e+00  8.90473470e+00
  8.90473525e+00  1.00742366e+01  1.00751192e+01  1.02326661e+01
  1.03315932e+01  1.03561581e+01  1.11456288e+01  1.11456304e+01
  1.12642543e+01  1.12643983e+01  1.13042416e+01  1.13042440e+01
  1.16277120e+01  1.16282587e+01  1.18412023e+01  1.18681183e+01
  1.18757945e+01  1.19929813e+01  1.20386256e+01  1.20654936e+01
  1.23529928e+01  1.23533130e+01  1.24235398e+01  1.24478519e+01
  1.25538701e+01  1.25539624e+01  1.36416935e+01  1.43382151e+01
  1.43628951e+01  1.59134310e+01  3.21959426e+01  3.23527294e+01]
E1 = -78.01748116573486  Ecoul = 31.302994652772032
cycle= 3 E= -30.9403873218392  delta_E= -0.00654  |g|= 0.0169  |ddm|= 0.212
    CPU time for cycle= 3    133.40 sec, wall time      1.05 sec
  HOMO = -0.678541600844899  LUMO = -0.421151456965065
                  Roothaan           | alpha              | beta
  Highest 2-occ =  -1.11110358127655 |  -1.12211733027014 |  -1.05825486236933
  Lowest 0-occ =  -0.421151456965065 | -0.434440969687397 | -0.410684953327276
  1-occ =         -0.678541600844899 |  -1.00540366216982 |  -0.35286158495276
  Roothaan mo_energy =
[-2.14908019e+00 -1.56177487e+00 -1.20161222e+00 -1.17476059e+00
 -1.11110358e+00 -6.78541601e-01 -4.21151457e-01 -2.68413708e-02
  1.24298289e-01  1.25107034e-01  1.62821380e-01  1.84157716e-01
  2.38050425e-01  2.47110595e-01  3.37539289e-01  6.77914723e-01
  6.78200050e-01  7.22199528e-01  8.69760652e-01  8.73038481e-01
  1.07970118e+00  1.07970287e+00  1.28855270e+00  1.30728051e+00
  1.42884851e+00  1.43116775e+00  1.62037638e+00  1.62139905e+00
  1.91886728e+00  1.92430930e+00  1.99849755e+00  2.35122914e+00
  2.75545282e+00  2.75561740e+00  2.80385315e+00  2.80385968e+00
  2.93265562e+00  2.94812227e+00  3.22013643e+00  3.22015062e+00
  3.34680466e+00  3.64121606e+00  3.64131722e+00  3.66365350e+00
  3.77647800e+00  3.77656656e+00  3.83583896e+00  3.84848737e+00
  3.93375624e+00  3.93425336e+00  4.08854693e+00  4.10457913e+00
  4.19581652e+00  4.30989247e+00  4.83063986e+00  5.05384573e+00
  5.07387190e+00  6.40730600e+00  6.54813804e+00  6.56243206e+00
  6.74805480e+00  6.76247236e+00  6.95797402e+00  7.78637899e+00
  7.78652710e+00  7.90829761e+00  7.90830485e+00  8.17092542e+00
  8.27328740e+00  8.27328750e+00  8.43211433e+00  8.43395612e+00
  8.43395613e+00  8.45863092e+00  8.69614772e+00  8.91167682e+00
  8.91167733e+00  1.00807400e+01  1.00816117e+01  1.02392152e+01
  1.03374890e+01  1.03621161e+01  1.11510316e+01  1.11510333e+01
  1.12697994e+01  1.12699502e+01  1.13096799e+01  1.13096841e+01
  1.16335085e+01  1.16340833e+01  1.18461024e+01  1.18734758e+01
  1.18796476e+01  1.19985608e+01  1.20434278e+01  1.20706006e+01
  1.23567453e+01  1.23570806e+01  1.24281012e+01  1.24528001e+01
  1.25576128e+01  1.25577064e+01  1.36455377e+01  1.43424337e+01
  1.43674258e+01  1.59171250e+01  3.21958930e+01  3.23528039e+01]
E1 = -78.02463064102659  Ecoul = 31.310048848759727
cycle= 4 E= -30.9404826011432  delta_E= -9.53e-05  |g|= 0.00233  |ddm|= 0.0254
    CPU time for cycle= 4     87.93 sec, wall time      0.70 sec
  HOMO = -0.678662005838981  LUMO = -0.421038622157225
                  Roothaan           | alpha              | beta
  Highest 2-occ =  -1.11105578825683 |  -1.12106994977421 |  -1.05777362429333
  Lowest 0-occ =  -0.421038622157225 |  -0.43313426030948 | -0.409362644069005
  1-occ =         -0.678662005838981 |   -1.0053431713195 | -0.352246143948161
  Roothaan mo_energy =
[-2.14924733e+00 -1.56161913e+00 -1.20196192e+00 -1.17506702e+00
 -1.11105579e+00 -6.78662006e-01 -4.21038622e-01 -2.68045170e-02
  1.24190603e-01  1.24761043e-01  1.62731222e-01  1.84014705e-01
  2.37960376e-01  2.47100429e-01  3.37231080e-01  6.77506341e-01
  6.77793572e-01  7.22081147e-01  8.69446389e-01  8.72770050e-01
  1.07941206e+00  1.07941596e+00  1.28840699e+00  1.30715242e+00
  1.42874599e+00  1.43093188e+00  1.61993939e+00  1.62122930e+00
  1.91862632e+00  1.92378604e+00  1.99807933e+00  2.35118187e+00
  2.75495389e+00  2.75511792e+00  2.80332854e+00  2.80333503e+00
  2.93215676e+00  2.94760943e+00  3.21967202e+00  3.21968684e+00
  3.34651528e+00  3.64086661e+00  3.64096786e+00  3.66340964e+00
  3.77604217e+00  3.77612998e+00  3.83569031e+00  3.84833607e+00
  3.93346003e+00  3.93395546e+00  4.08836176e+00  4.10436872e+00
  4.19573191e+00  4.30963724e+00  4.83046635e+00  5.05350324e+00
  5.07353453e+00  6.40736818e+00  6.54817213e+00  6.56240643e+00
  6.74809268e+00  6.76242938e+00  6.95804037e+00  7.78586152e+00
  7.78600984e+00  7.90777533e+00  7.90778260e+00  8.17078930e+00
  8.27269169e+00  8.27269179e+00  8.43153283e+00  8.43336565e+00
  8.43336565e+00  8.45809230e+00  8.69556689e+00  8.91113293e+00
  8.91113344e+00  1.00801969e+01  1.00810664e+01  1.02391681e+01
  1.03372848e+01  1.03619614e+01  1.11506575e+01  1.11506592e+01
  1.12695393e+01  1.12696911e+01  1.13093426e+01  1.13093463e+01
  1.16333628e+01  1.16339426e+01  1.18458802e+01  1.18733704e+01
  1.18794010e+01  1.19988091e+01  1.20431696e+01  1.20704406e+01
  1.23567036e+01  1.23570431e+01  1.24282193e+01  1.24530095e+01
  1.25575508e+01  1.25576461e+01  1.36454669e+01  1.43423328e+01
  1.43674234e+01  1.59172060e+01  3.21966227e+01  3.23535540e+01]
E1 = -78.02402948573885  Ecoul = 31.30944583530239
cycle= 5 E= -30.9404844593128  delta_E= -1.86e-06  |g|= 0.000319  |ddm|= 0.00346
    CPU time for cycle= 5     86.41 sec, wall time      0.69 sec
  HOMO = -0.678878007697716  LUMO = -0.421204543145628
                  Roothaan           | alpha              | beta
  Highest 2-occ =  -1.11121809973692 |  -1.12105077723645 |  -1.05788545768119
  Lowest 0-occ =  -0.421204543145628 | -0.433089428269693 | -0.409317093644707
  1-occ =         -0.678878007697716 |  -1.00542070273207 | -0.352317574665552
  Roothaan mo_energy =
[-2.14942118e+00 -1.56179549e+00 -1.20218697e+00 -1.17524626e+00
 -1.11121810e+00 -6.78878008e-01 -4.21204543e-01 -2.68876480e-02
  1.24175881e-01  1.24753678e-01  1.62604115e-01  1.83997003e-01
  2.37976711e-01  2.47069162e-01  3.37173999e-01  6.77446050e-01
  6.77733651e-01  7.22043628e-01  8.69369035e-01  8.72685955e-01
  1.07935093e+00  1.07935436e+00  1.28831439e+00  1.30708211e+00
  1.42867508e+00  1.43087563e+00  1.61984447e+00  1.62111903e+00
  1.91853470e+00  1.92372580e+00  1.99798457e+00  2.35109069e+00
  2.75487606e+00  2.75504012e+00  2.80325708e+00  2.80326358e+00
  2.93204423e+00  2.94749558e+00  3.21959528e+00  3.21960993e+00
  3.34635121e+00  3.64071923e+00  3.64082072e+00  3.66331915e+00
  3.77589973e+00  3.77598734e+00  3.83555642e+00  3.84820350e+00
  3.93337011e+00  3.93386566e+00  4.08823792e+00  4.10424636e+00
  4.19556677e+00  4.30946289e+00  4.83031862e+00  5.05338939e+00
  5.07342192e+00  6.40717043e+00  6.54790898e+00  6.56215014e+00
  6.74782795e+00  6.76217484e+00  6.95779429e+00  7.78573236e+00
  7.78588074e+00  7.90764566e+00  7.90765293e+00  8.17055150e+00
  8.27255862e+00  8.27255872e+00  8.43138675e+00  8.43323134e+00
  8.43323135e+00  8.45794706e+00  8.69541575e+00  8.91099914e+00
  8.91099965e+00  1.00800511e+01  1.00809210e+01  1.02389858e+01
  1.03370989e+01  1.03617754e+01  1.11504238e+01  1.11504255e+01
  1.12693113e+01  1.12694631e+01  1.13091083e+01  1.13091119e+01
  1.16331378e+01  1.16337175e+01  1.18456548e+01  1.18731416e+01
  1.18791586e+01  1.19985490e+01  1.20429385e+01  1.20702064e+01
  1.23564003e+01  1.23567396e+01  1.24279362e+01  1.24527241e+01
  1.25572506e+01  1.25573459e+01  1.36452102e+01  1.43420697e+01
  1.43671589e+01  1.59169237e+01  3.21961717e+01  3.23531046e+01]
E1 = -78.0243096918256  Ecoul = 31.309726019834443
cycle= 6 E= -30.9404844808675  delta_E= -2.16e-08  |g|= 5.3e-05  |ddm|= 0.000493
    CPU time for cycle= 6     89.55 sec, wall time      0.72 sec
  HOMO = -0.678848844656548  LUMO = -0.421182131320506
                  Roothaan           | alpha              | beta
  Highest 2-occ =  -1.11119808171145 |  -1.12102496397264 |  -1.05785997467044
  Lowest 0-occ =  -0.421182131320506 | -0.433062127716434 | -0.409289478969414
  1-occ =         -0.678848844656548 |  -1.00539827137958 | -0.352284156497973
  Roothaan mo_energy =
[-2.14940026e+00 -1.56177093e+00 -1.20216949e+00 -1.17522842e+00
 -1.11119808e+00 -6.78848845e-01 -4.21182131e-01 -2.68743037e-02
  1.24179178e-01  1.24755851e-01  1.62620317e-01  1.83999608e-01
  2.37970911e-01  2.47073494e-01  3.37180145e-01  6.77451460e-01
  6.77739085e-01  7.22048653e-01  8.69379187e-01  8.72696051e-01
  1.07935750e+00  1.07936095e+00  1.28832622e+00  1.30709313e+00
  1.42868509e+00  1.43088528e+00  1.61985775e+00  1.62113310e+00
  1.91854537e+00  1.92373608e+00  1.99799568e+00  2.35110372e+00
  2.75488457e+00  2.75504864e+00  2.80326402e+00  2.80327052e+00
  2.93205703e+00  2.94750738e+00  3.21960310e+00  3.21961777e+00
  3.34637259e+00  3.64073775e+00  3.64083925e+00  3.66333304e+00
  3.77591578e+00  3.77600335e+00  3.83557611e+00  3.84822290e+00
  3.93338259e+00  3.93387815e+00  4.08825693e+00  4.10426544e+00
  4.19559109e+00  4.30948446e+00  4.83033917e+00  5.05340381e+00
  5.07343653e+00  6.40719984e+00  6.54794178e+00  6.56218292e+00
  6.74786103e+00  6.76220810e+00  6.95782640e+00  7.78574882e+00
  7.78589722e+00  7.90766181e+00  7.90766909e+00  8.17058236e+00
  8.27257314e+00  8.27257323e+00  8.43140329e+00  8.43324602e+00
  8.43324603e+00  8.45796456e+00  8.69543189e+00  8.91101535e+00
  8.91101586e+00  1.00800685e+01  1.00809383e+01  1.02390163e+01
  1.03371262e+01  1.03618029e+01  1.11504516e+01  1.11504533e+01
  1.12693414e+01  1.12694932e+01  1.13091367e+01  1.13091404e+01
  1.16331700e+01  1.16337498e+01  1.18456859e+01  1.18731733e+01
  1.18791869e+01  1.19985929e+01  1.20429684e+01  1.20702370e+01
  1.23564381e+01  1.23567775e+01  1.24279785e+01  1.24527667e+01
  1.25572878e+01  1.25573830e+01  1.36452433e+01  1.43421045e+01
  1.43671945e+01  1.59169623e+01  3.21962283e+01  3.23531618e+01]
E1 = -78.02423032782593  Ecoul = 31.309646655139595
cycle= 7 E= -30.9404844815627  delta_E= -6.95e-10  |g|= 5.81e-06  |ddm|= 7.33e-05
    CPU time for cycle= 7     56.60 sec, wall time      0.46 sec
  HOMO = -0.678847553611562  LUMO = -0.421182273348383
                  Roothaan           | alpha              | beta
  Highest 2-occ =   -1.1111980311833 |  -1.12103138909192 |  -1.05786742670573
  Lowest 0-occ =  -0.421182273348383 | -0.433068579856183 | -0.409295966840584
  1-occ =         -0.678847553611562 |   -1.0054039924611 | -0.352291080186529
  Roothaan mo_energy =
[-2.14940025e+00 -1.56177086e+00 -1.20216961e+00 -1.17522777e+00
 -1.11119803e+00 -6.78847554e-01 -4.21182273e-01 -2.68743149e-02
  1.24178950e-01  1.24755757e-01  1.62620083e-01  1.83999487e-01
  2.37970536e-01  2.47073398e-01  3.37180050e-01  6.77451594e-01
  6.77739207e-01  7.22048631e-01  8.69379194e-01  8.72696172e-01
  1.07935772e+00  1.07936118e+00  1.28832617e+00  1.30709301e+00
  1.42868508e+00  1.43088484e+00  1.61985766e+00  1.62113291e+00
  1.91854538e+00  1.92373583e+00  1.99799570e+00  2.35110363e+00
  2.75488461e+00  2.75504868e+00  2.80326415e+00  2.80327065e+00
  2.93205684e+00  2.94750718e+00  3.21960324e+00  3.21961790e+00
  3.34637230e+00  3.64073767e+00  3.64083916e+00  3.66333321e+00
  3.77591559e+00  3.77600317e+00  3.83557605e+00  3.84822275e+00
  3.93338273e+00  3.93387830e+00  4.08825701e+00  4.10426553e+00
  4.19559090e+00  4.30948416e+00  4.83033903e+00  5.05340382e+00
  5.07343644e+00  6.40719960e+00  6.54794134e+00  6.56218241e+00
  6.74786062e+00  6.76220761e+00  6.95782605e+00  7.78574872e+00
  7.78589711e+00  7.90766178e+00  7.90766905e+00  8.17058198e+00
  8.27257309e+00  8.27257319e+00  8.43140303e+00  8.43324598e+00
  8.43324598e+00  8.45796424e+00  8.69543145e+00  8.91101531e+00
  8.91101582e+00  1.00800683e+01  1.00809381e+01  1.02390162e+01
  1.03371260e+01  1.03618026e+01  1.11504512e+01  1.11504529e+01
  1.12693410e+01  1.12694928e+01  1.13091364e+01  1.13091401e+01
  1.16331697e+01  1.16337495e+01  1.18456855e+01  1.18731727e+01
  1.18791863e+01  1.19985927e+01  1.20429681e+01  1.20702365e+01
  1.23564376e+01  1.23567769e+01  1.24279782e+01  1.24527663e+01
  1.25572872e+01  1.25573824e+01  1.36452427e+01  1.43421041e+01
  1.43671940e+01  1.59169617e+01  3.21962275e+01  3.23531610e+01]
E1 = -78.02423438845423  Ecoul = 31.309650715757087
Extra cycle  E= -30.9404844815735  delta_E= -1.08e-11  |g|= 1.42e-06  |ddm|= 8.27e-06
    CPU time for scf_cycle    796.25 sec, wall time      6.53 sec
    CPU time for SCF    796.25 sec, wall time      6.53 sec
converged SCF energy = -30.9404844815735
