#INFO: **** input file is /home/nkousuke/lustre/toBeSync/turboRVB/05turbo-genius-development/turbogenius_paper/04data/sanity_checks/03pyscf_HF_turbo_VMC_via_trexio/00open_boundary/results/H2O2/pyscf-HF-workflow/run.py ****

from pyscf_wrapper import Pyscf_wrapper

# input variables
pyscf_chkfile="pyscf.chk"
structure_file="H2O2.xyz"

# input variables
omp_num_threads=128
charge=0
spin=0
basis="ccecp-ccpvqz"
ecp="ccecp"
scf_method="HF"
dft_xc="NA"
solver_newton=False
MP2_flag=False
CCSD_flag=False
pyscf_output="out.pyscf"
twist_average=False
exp_to_discard=0.0
kpt=[0.0, 0.0, 0.0]
kpt_grid=[1, 1, 1]
smearing_method="fermi"
smearing_sigma=0.0

pyscf_calc=Pyscf_wrapper(
                        structure_file=structure_file,
                        chkfile=pyscf_chkfile,
                        )

pyscf_calc.run_pyscf(
                  omp_num_threads=omp_num_threads,
                  charge=charge,
                  spin=spin,
                  basis=basis,
                  ecp=ecp,
                  scf_method=scf_method,
                  dft_xc=dft_xc,
                  solver_newton=solver_newton,
                  MP2_flag=MP2_flag,
                  CCSD_flag=CCSD_flag,
                  pyscf_output=pyscf_output,
                  twist_average=twist_average,
                  exp_to_discard=exp_to_discard,
                  kpt=kpt,
                  kpt_grid=kpt_grid,
                  smearing_method=smearing_method,
                  smearing_sigma=smearing_sigma
                  )
                #INFO: ******************** input file end ********************


System: uname_result(system='Linux', node='spcc-200', release='5.4.0-66-generic', version='#74-Ubuntu SMP Wed Jan 27 22:54:38 UTC 2021', machine='x86_64', processor='x86_64')  Threads 128
Python 3.7.3 (default, Mar 27 2019, 22:11:17) 
[GCC 7.3.0]
numpy 1.20.1  scipy 1.7.3
Date: Mon Dec 19 18:09:15 2022
PySCF version 2.0.1
PySCF path  /home/nkousuke/application/anaconda3/lib/python3.7/site-packages/pyscf

[CONFIG] conf_file /home/nkousuke/.pyscf_conf.py
[INPUT] verbose = 5
[INPUT] max_memory = 507492.703125 
[INPUT] num. atoms = 4
[INPUT] num. electrons = 14
[INPUT] charge = 0
[INPUT] spin (= nelec alpha-beta = 2S) = 0
[INPUT] symmetry False subgroup None
[INPUT] Mole.unit = A
[INPUT]  1 O      0.000000000000   0.725500000000  -0.058220000000 AA    0.000000000000   1.370996303372  -0.110019854972 Bohr
[INPUT]  2 O      0.000000000000  -0.725500000000  -0.058220000000 AA    0.000000000000  -1.370996303372  -0.110019854972 Bohr
[INPUT]  3 H      0.790130000000   0.892670000000   0.465750000000 AA    1.493129302803   1.686901819615   0.880139942516 Bohr
[INPUT]  4 H     -0.790130000000  -0.892670000000   0.465750000000 AA   -1.493129302803  -1.686901819615   0.880139942516 Bohr
[INPUT] ---------------- BASIS SET ---------------- 
[INPUT] l, kappa, [nprim/nctr], expnt,             c_1 c_2 ...
[INPUT] O
[INPUT] 0    0    [9    /1   ]  54.775216         -0.0012444
                                25.616801         0.010733
                                11.980245         0.0018889
                                6.992317          -0.1742537
                                2.620277          0.0017622
                                1.225429          0.3161846
                                0.577797          0.4512023
                                0.268022          0.3121534
                                0.125346          0.0511167
[INPUT] 0    0    [1    /1   ]  1.351771             1
[INPUT] 0    0    [1    /1   ]  0.843157             1
[INPUT] 0    0    [1    /1   ]  0.22438              1
[INPUT] 1    0    [9    /1   ]  22.217266         0.0104866
                                10.74755          0.0366435
                                5.315785          0.0803674
                                2.660761          0.162701
                                1.331816          0.2377791
                                0.678626          0.2811422
                                0.333673          0.2643189
                                0.167017          0.1466014
                                0.083598          0.0458145
[INPUT] 1    0    [1    /1   ]  1.106737             1
[INPUT] 1    0    [1    /1   ]  0.452364             1
[INPUT] 1    0    [1    /1   ]  0.148562             1
[INPUT] 2    0    [1    /1   ]  4.008867             1
[INPUT] 2    0    [1    /1   ]  1.344331             1
[INPUT] 2    0    [1    /1   ]  0.455711             1
[INPUT] 3    0    [1    /1   ]  2.763115             1
[INPUT] 3    0    [1    /1   ]  0.876289             1
[INPUT] 4    0    [1    /1   ]  1.759081             1
[INPUT] H
[INPUT] 0    0    [8    /1   ]  23.843185         0.0041149
                                10.212443         0.0104644
                                4.374164          0.0280111
                                1.873529          0.0758862
                                0.802465          0.1821062
                                0.343709          0.3485214
                                0.147217          0.3782313
                                0.063055          0.1164241
[INPUT] 0    0    [1    /1   ]  0.081856             1
[INPUT] 0    0    [1    /1   ]  0.233254             1
[INPUT] 0    0    [1    /1   ]  0.664673             1
[INPUT] 1    0    [1    /1   ]  0.284469             1
[INPUT] 1    0    [1    /1   ]  0.847159             1
[INPUT] 1    0    [1    /1   ]  2.522868             1
[INPUT] 2    0    [1    /1   ]  0.665279             1
[INPUT] 2    0    [1    /1   ]  2.048739             1
[INPUT] 3    0    [1    /1   ]  1.42146              1

nuclear repulsion = 23.3331484872307
number of shells = 48
number of NR pGTOs = 246
number of NR cGTOs = 168
basis = ccecp-ccpvqz
ecp = ccecp
CPU time:         5.14


******** <class 'pyscf.scf.hf.RHF'> ********
method = RHF
initial guess = minao
damping factor = 0
level_shift factor = 0
DIIS = <class 'pyscf.scf.diis.CDIIS'>
diis_start_cycle = 1
diis_space = 8
SCF conv_tol = 1e-09
SCF conv_tol_grad = None
SCF max_cycles = 200
direct_scf = True
direct_scf_tol = 1e-13
chkfile to save SCF result = pyscf.chk
max_memory 507492 MB (current use 106 MB)
Set gradient conv threshold to 3.16228e-05
E1 = -98.98554989143196  E_coul = 43.37396512761234
init E= -32.2784362765889
cond(S) = 21801.73576077336
    CPU time for initialize scf    185.80 sec, wall time      1.68 sec
  HOMO = -0.38239397989073  LUMO = -0.0417681513372574
  mo_energy =
[-1.80047353 -1.35942048 -0.74806167 -0.71428832 -0.62004166 -0.43552551
 -0.38239398 -0.04176815  0.07580083  0.12612823  0.34469253  0.35523348
  0.39529631  0.39861635  0.46070698  0.48517653  0.50309543  0.50816339
  0.62240949  0.68173724  0.75052915  0.76216378  0.95342918  0.99286484
  1.09377615  1.17460947  1.2183046   1.2214923   1.33666688  1.39103752
  1.41463143  1.45796247  1.5247564   1.5766541   1.66270749  1.69402082
  1.75900628  1.79269463  1.9680257   2.09188359  2.1467189   2.19758027
  2.22993209  2.3834585   2.38716799  2.44702174  2.52750952  2.53903363
  2.55814353  2.61668681  2.65127759  2.77977137  2.85839401  2.86183082
  2.92373308  2.97112307  3.04546703  3.09139977  3.33299503  3.38414087
  3.41702028  3.51632231  3.57026252  3.76936736  3.80701224  4.00469856
  4.04446332  4.15632662  4.1882448   4.22894394  4.23669083  4.3690641
  4.41157474  4.45451453  4.54975277  4.55039054  4.7384534   4.74802703
  4.85152287  4.86230388  4.9162736   4.94434206  5.14428292  5.44647998
  5.73956111  6.17418974  6.21968168  6.22038866  6.2581997   6.41440633
  6.79375394  6.80773824  6.8896522   6.92426247  6.96842857  6.98551695
  7.09870483  7.14301415  7.25085993  7.34240058  7.63162743  7.80289151
  7.82708202  7.85285414  7.8777566   7.92910645  7.95229507  8.00548788
  8.01817816  8.02967122  8.09244755  8.1945603   8.22745735  8.31332073
  8.43545516  8.46483765  8.61392755  8.69147047  8.75396206  8.78789195
  8.99335175  9.23257964  9.26871968  9.2870358   9.33233913  9.43001313
  9.49226637  9.60210151  9.79748125  9.85567757 10.24392736 10.2553597
 10.32228765 10.57806798 10.80428317 10.89296739 11.04016848 11.11603007
 11.41694182 11.4649064  11.6907553  11.69183192 11.85075097 12.01959344
 12.02414178 12.04988424 12.14544583 12.40018338 12.43453016 12.47730279
 12.6046402  12.74279284 12.75750943 12.83238401 13.27695707 13.32078935
 13.6162043  13.77850421 14.15688428 14.41888461 14.59372163 14.61049905
 14.70411376 14.95044664 16.65080573 16.77877543 32.78774643 33.01224757]
E1 = -100.544326515797  E_coul = 44.63521432427887
cycle= 1 E= -32.5759637042874  delta_E= -0.298  |g|= 0.392  |ddm|= 3.34
    CPU time for cycle= 1     28.87 sec, wall time      0.30 sec
  HOMO = -0.462951448447982  LUMO = 0.111412037702037
  mo_energy =
[-1.4820511  -1.21972213 -0.70736573 -0.69628831 -0.58940006 -0.49483895
 -0.46295145  0.11141204  0.11777847  0.24466122  0.3972652   0.41033746
  0.42867497  0.44596703  0.48895857  0.52149981  0.54606822  0.56400246
  0.62187962  0.66930182  0.74570922  0.76808316  0.96820038  1.03681691
  1.16109222  1.18530139  1.23068113  1.24270612  1.38130914  1.4386092
  1.46465823  1.52414665  1.59359193  1.65044183  1.70958267  1.7552926
  1.8337374   1.87437759  2.01269344  2.15574775  2.18328695  2.19227254
  2.24997762  2.35007533  2.36138259  2.47278776  2.49300291  2.56971154
  2.58875587  2.60869446  2.65934235  2.78009706  2.84504255  2.89175605
  2.94924853  2.98238657  3.0710306   3.1524863   3.36032086  3.40563862
  3.49031417  3.58775428  3.63966652  3.84763858  3.89535326  4.11365303
  4.13731412  4.27335868  4.3189745   4.32520703  4.36583927  4.49094778
  4.53598579  4.55978333  4.66720323  4.67007628  4.8120598   4.8174066
  4.92029975  4.92741578  5.01224136  5.02760557  5.25534084  5.50473969
  5.78858012  6.14653735  6.18381808  6.1933945   6.23151432  6.49567516
  6.8192753   6.83253246  6.96602651  6.96635001  7.0407945   7.06188849
  7.18353712  7.22396133  7.28346091  7.36433718  7.58540043  7.76926127
  7.82349453  7.83860164  7.84708365  7.92206898  7.93334575  7.97962282
  7.99869725  8.00210269  8.10120183  8.17423999  8.1920448   8.29752139
  8.4416382   8.54896354  8.71746593  8.74588567  8.82644219  8.89593432
  9.03321266  9.27748421  9.28328325  9.32735369  9.33886015  9.48719024
  9.54640308  9.71318504  9.87669733  9.96337654 10.34213867 10.34917353
 10.42694248 10.68930725 10.95567502 11.03211219 11.18515844 11.25778072
 11.52632947 11.53160409 11.76563681 11.78768326 12.02116426 12.18141984
 12.18801046 12.21793977 12.32561424 12.57434659 12.59773632 12.65174527
 12.75935616 12.92580564 12.92810865 12.99873141 13.45299018 13.49111662
 13.78572668 13.94437947 14.28046626 14.52921216 14.75245308 14.77310357
 14.84970365 15.09228907 16.76941904 16.89832797 33.01836033 33.24372037]
E1 = -100.16686326278393  E_coul = 44.22961450278937
cycle= 2 E= -32.6041002727638  delta_E= -0.0281  |g|= 0.103  |ddm|= 0.591
    CPU time for cycle= 2     85.01 sec, wall time      0.71 sec
  HOMO = -0.495619663401523  LUMO = 0.11670388781629
  mo_energy =
[-1.50380393 -1.24050698 -0.72577916 -0.72121108 -0.61963954 -0.5270323
 -0.49561966  0.11670389  0.12159776  0.22766364  0.38719145  0.39978152
  0.43073256  0.44727297  0.48760039  0.51420167  0.54018444  0.55589475
  0.62863168  0.6792941   0.75158737  0.77251278  0.97240824  1.02901073
  1.14430579  1.19144989  1.23536203  1.24121575  1.37452885  1.43134715
  1.45713902  1.51119961  1.58006256  1.63462961  1.70391451  1.7462104
  1.81836249  1.85650722  2.00967479  2.14418675  2.18849679  2.19721762
  2.25254348  2.36774993  2.37606904  2.47088215  2.51183894  2.57036512
  2.59552192  2.60492131  2.65807377  2.7892746   2.85459717  2.88809954
  2.95004922  2.98821818  3.06992591  3.14072505  3.3628491   3.41040912
  3.47735021  3.57498046  3.62686003  3.83002506  3.87635073  4.08792974
  4.11842217  4.24875971  4.28856025  4.30648067  4.33568844  4.46188924
  4.50483441  4.53666537  4.63993218  4.64157254  4.80501103  4.80538293
  4.91249263  4.91735025  4.99222183  5.0092608   5.22609285  5.49954927
  5.78655154  6.16964132  6.21010535  6.21533197  6.25560687  6.47940108
  6.82664073  6.84250095  6.9557491   6.9726814   7.02617392  7.04167111
  7.16146237  7.20707902  7.2911832   7.36921974  7.61530284  7.7888604
  7.84629457  7.8545574   7.86116366  7.93996705  7.94334387  8.00022148
  8.01763298  8.02948944  8.11933387  8.19543209  8.22072795  8.32006062
  8.44843288  8.53325501  8.70053938  8.74078886  8.81567642  8.87599016
  9.03872344  9.29389792  9.29410655  9.32578348  9.34786562  9.50525711
  9.51853609  9.69012841  9.86169722  9.9381552  10.32603167 10.33237121
 10.40468182 10.66725664 10.91683275 10.99545772 11.15277245 11.22643886
 11.50198448 11.52758788 11.75543988 11.76834595 11.97363304 12.13928912
 12.1407344  12.17046533 12.2759998  12.53185125 12.55121204 12.60869235
 12.71254751 12.8740299  12.87986208 12.94596148 13.3989444  13.43769855
 13.73575789 13.89856351 14.2469698  14.49698145 14.70998327 14.73018075
 14.80519984 15.04659097 16.74267718 16.86937032 32.93462634 33.15979096]
E1 = -100.40798622235195  E_coul = 44.46893503400551
cycle= 3 E= -32.6059027011157  delta_E= -0.0018  |g|= 0.0327  |ddm|= 0.152
    CPU time for cycle= 3     32.25 sec, wall time      0.25 sec
  HOMO = -0.484666339523493  LUMO = 0.118422798842498
  mo_energy =
[-1.48996161 -1.22827982 -0.71370727 -0.71017768 -0.60677283 -0.51631001
 -0.48466634  0.1184228   0.12372071  0.23752475  0.38924345  0.40407785
  0.4338214   0.45233116  0.49048376  0.51651656  0.54309827  0.56097176
  0.63114247  0.68168915  0.75381514  0.77512861  0.97612455  1.03272665
  1.14969721  1.19607529  1.24023901  1.24567998  1.37970334  1.43729225
  1.46289133  1.51707025  1.58585332  1.64051311  1.70905382  1.75177204
  1.82433991  1.86232877  2.01654246  2.15127241  2.19518605  2.2008194
  2.25774941  2.37075493  2.37969753  2.47784265  2.51458665  2.57476424
  2.60283757  2.60856444  2.66318693  2.79359723  2.85876445  2.89421029
  2.95569971  2.99284967  3.07791368  3.14768962  3.37027368  3.41754241
  3.48662821  3.58478397  3.63638025  3.84059464  3.88477639  4.09794791
  4.1268582   4.25943542  4.29926827  4.31663819  4.34626316  4.47346529
  4.5175657   4.54762979  4.65086061  4.65291047  4.81390975  4.81431097
  4.92129971  4.92774701  5.00046783  5.01798062  5.23718128  5.50978715
  5.79588216  6.17516354  6.21483529  6.22093234  6.26118945  6.49143352
  6.83493036  6.8505369   6.96832143  6.98144743  7.03732456  7.05472724
  7.17344095  7.2189798   7.30217641  7.37952193  7.62144007  7.79601901
  7.85230347  7.86333688  7.87035458  7.94865562  7.95290548  8.00803294
  8.0269706   8.03614132  8.12842392  8.20304212  8.22748152  8.32752335
  8.45806636  8.54466345  8.71274194  8.75150346  8.82680199  8.88864148
  9.04917281  9.30301711  9.3033108   9.33783717  9.35640595  9.51413658
  9.53441344  9.70370526  9.87578886  9.95165141 10.33826606 10.34550637
 10.41730924 10.68105515 10.93247294 11.01107203 11.16755866 11.24093232
 11.51733806 11.54173425 11.77089667 11.7842539  11.99245011 12.15717824
 12.15964276 12.18914349 12.29402719 12.55022331 12.56995762 12.62705688
 12.73065323 12.89072202 12.89816061 12.96592862 13.42014258 13.45940762
 13.75492406 13.91875627 14.26540373 14.51646003 14.72906417 14.74947156
 14.82389318 15.06640562 16.76044527 16.88755179 32.9643102  33.18945977]
E1 = -100.32785303826869  E_coul = 44.38858131603575
cycle= 4 E= -32.6061232350022  delta_E= -0.000221  |g|= 0.00925  |ddm|= 0.0494
    CPU time for cycle= 4     42.96 sec, wall time      0.34 sec
  HOMO = -0.487576379434718  LUMO = 0.118312869283853
  mo_energy =
[-1.49283177 -1.23013324 -0.71561748 -0.71225488 -0.60937241 -0.51912897
 -0.48757638  0.11831287  0.12342405  0.23618338  0.38872677  0.40341498
  0.43341359  0.45151547  0.48988999  0.51589149  0.54279193  0.5604778
  0.63089634  0.68145954  0.75363979  0.77476204  0.97554233  1.03206395
  1.1486967   1.19555748  1.23951457  1.24479924  1.37872558  1.43615676
  1.46171421  1.51598964  1.58491944  1.63948012  1.70840724  1.75096384
  1.82339359  1.86141314  2.01513971  2.14983309  2.1940465   2.20037433
  2.25719981  2.3706558   2.37954821  2.47668331  2.51486442  2.57422588
  2.60165603  2.60867354  2.66274545  2.79312694  2.85860728  2.89320993
  2.95497436  2.99230386  3.07650662  3.1465343   3.36913396  3.41670866
  3.48453942  3.58270496  3.6343102   3.83837967  3.8831856   4.09594055
  4.12509132  4.25725027  4.29719487  4.31463085  4.34424902  4.47144309
  4.5151556   4.54552593  4.64897568  4.65090847  4.81240404  4.81286892
  4.91975047  4.92593967  4.99915268  5.0164999   5.23533173  5.50848149
  5.79517589  6.17503189  6.21488758  6.22066956  6.26091822  6.48962662
  6.83412471  6.84976777  6.96638884  6.98047496  7.03584869  7.05279639
  7.1720042   7.21764343  7.30068009  7.37856192  7.62193044  7.79615569
  7.85263562  7.86302322  7.86973262  7.9482798   7.9522766   8.00802266
  8.02642046  8.03654071  8.12800688  8.20307542  8.22773269  8.32773834
  8.45758466  8.54281974  8.7106119   8.75005672  8.82522328  8.88641395
  9.04803375  9.30246867  9.30294944  9.33602367  9.35624036  9.51372923
  9.53116632  9.70110662  9.87329957  9.94911753 10.3360634  10.34312337
 10.41503144 10.6786609  10.92985723 11.00839177 11.16510723 11.23842931
 11.51486833 11.53968933 11.76863971 11.78177745 11.98897502 12.15391963
 12.15611938 12.1855957  12.29073925 12.54671591 12.56637091 12.62354033
 12.72721925 12.88759767 12.89477375 12.96218392 13.41620575 13.45536749
 13.75131737 13.91529548 14.26208894 14.51287133 14.72578728 14.7461646
 14.82056746 15.06271407 16.75771115 16.88469693 32.95883557 33.1839984 ]
E1 = -100.34560210383684  E_coul = 44.40630206162123
cycle= 5 E= -32.6061515549849  delta_E= -2.83e-05  |g|= 0.00172  |ddm|= 0.0165
    CPU time for cycle= 5     80.54 sec, wall time      0.65 sec
  HOMO = -0.487718653487047  LUMO = 0.11833352364086
  mo_energy =
[-1.49276737 -1.23010858 -0.71542214 -0.71219759 -0.60945417 -0.51926625
 -0.48771865  0.11833352  0.12335426  0.23626657  0.38872843  0.40342294
  0.43335159  0.45143519  0.48984228  0.51584257  0.54279762  0.56053657
  0.63087354  0.68144559  0.75362372  0.77477066  0.97553685  1.03211101
  1.14871787  1.19553065  1.23949159  1.24478352  1.3787473   1.43617651
  1.46172748  1.51596808  1.58488174  1.63943534  1.70835769  1.75093407
  1.82339303  1.86142693  2.01510971  2.14978107  2.19401583  2.20036535
  2.25714044  2.37063302  2.37950881  2.47669208  2.51480374  2.57420672
  2.60167135  2.60864379  2.66270812  2.79308922  2.85856255  2.89318992
  2.95493256  2.99225769  3.07652338  3.1465014   3.36911622  3.41666069
  3.48464546  3.58276729  3.63438711  3.83842761  3.88315689  4.09591392
  4.12508121  4.2572585   4.2971962   4.31465204  4.34427304  4.471455
  4.51513246  4.54557666  4.64891698  4.65083912  4.81235784  4.81290147
  4.9197571   4.92593772  4.99907327  5.01641237  5.23524117  5.5084801
  5.7951239   6.17495099  6.21480928  6.22061721  6.26087471  6.48960629
  6.8340628   6.84968939  6.96636857  6.98044039  7.0357674   7.05273257
  7.17194965  7.21761096  7.30067742  7.37850202  7.62185521  7.79612513
  7.85262281  7.86298357  7.86964886  7.94822475  7.95221858  8.00795199
  8.0263674   8.03640505  8.12789772  8.2029687   8.22765675  8.32760128
  8.45749443  8.54280282  8.71070246  8.75001296  8.82520353  8.88649694
  9.04804861  9.30241875  9.30288361  9.33607374  9.35618114  9.5137097
  9.53129214  9.70116725  9.87339377  9.94910592 10.33607234 10.34316568
 10.41495718 10.67865061 10.92981011 11.0083456  11.16506935 11.23841342
 11.51484405 11.5396842  11.76864213 11.78176158 11.98899198 12.15396518
 12.15619121 12.18562809 12.2907585  12.54664197 12.56633947 12.62348534
 12.7270673  12.88750055 12.8947746  12.96215652 13.41622945 13.45542384
 13.75131391 13.91528163 14.26196545 14.51290083 14.72572053 14.74610003
 14.82046109 15.06260729 16.75757602 16.88456836 32.95881788 33.18398006]
E1 = -100.3448654077703  E_coul = 44.40556329853365
cycle= 6 E= -32.6061536220059  delta_E= -2.07e-06  |g|= 0.000495  |ddm|= 0.00452
    CPU time for cycle= 6     93.33 sec, wall time      0.74 sec
  HOMO = -0.487732411108337  LUMO = 0.118338029566766
  mo_energy =
[-1.49276933 -1.23007324 -0.71533716 -0.71219943 -0.60950067 -0.51931641
 -0.48773241  0.11833803  0.12334015  0.23628762  0.38872104  0.40341598
  0.4333423   0.45141004  0.48983096  0.51582795  0.54280617  0.56056752
  0.63086976  0.68144689  0.75362434  0.77477206  0.97554272  1.03210423
  1.14870669  1.19553831  1.23949746  1.24478297  1.37874215  1.43617432
  1.46170832  1.51595104  1.58487769  1.63943811  1.70836137  1.75093612
  1.82339246  1.8614251   2.01510433  2.14977553  2.19401368  2.2003699
  2.25714044  2.37063635  2.37951504  2.47668977  2.51481026  2.57420362
  2.60166982  2.60865748  2.66271259  2.79308941  2.85857358  2.89318337
  2.95493523  2.99226023  3.07652891  3.1465035   3.36912101  3.41667006
  3.48463128  3.58275305  3.63437124  3.83840532  3.88315699  4.09588921
  4.12505199  4.25724611  4.29717306  4.31464271  4.34425985  4.47144854
  4.51513088  4.54556365  4.64891399  4.65084193  4.81235903  4.81290351
  4.91975702  4.92594085  4.99907638  5.01641205  5.23526104  5.50849055
  5.79513811  6.17496179  6.21482038  6.22062624  6.26088415  6.48961092
  6.83407115  6.84970289  6.96638473  6.98045062  7.03577949  7.05274579
  7.17194847  7.21761734  7.30069056  7.37851069  7.62188018  7.79614311
  7.85263913  7.86300909  7.86967694  7.94824494  7.95224611  8.00797648
  8.02639113  8.03642077  8.12791042  8.20299231  8.22767594  8.32761715
  8.45751621  8.54279589  8.71071149  8.75001714  8.82519971  8.88650722
  9.04806126  9.30243563  9.30289639  9.33608366  9.35619695  9.51373083
  9.53129414  9.70116592  9.87339003  9.94907868 10.33607259 10.34316365
 10.41493766 10.67863395 10.92977058 11.00832478 11.16504478 11.23838811
 11.51484357 11.53970153 11.76865564 11.7817808  11.98900498 12.15398375
 12.15620337 12.18564501 12.29077614 12.54664962 12.56634962 12.62349093
 12.72709269 12.88753153 12.89480115 12.96217863 13.41627112 13.4554544
 13.7513449  13.91531213 14.26199507 14.5129249  14.72572399 14.74610638
 14.82047821 15.06262409 16.75758197 16.88457331 32.95887583 33.1840371 ]
E1 = -100.34465211832594  E_coul = 44.405349805432635
cycle= 7 E= -32.6061538256626  delta_E= -2.04e-07  |g|= 0.000164  |ddm|= 0.00159
    CPU time for cycle= 7     72.76 sec, wall time      0.57 sec
  HOMO = -0.487733461292423  LUMO = 0.118339383003329
  mo_energy =
[-1.49277257 -1.2300767  -0.71531495 -0.71220126 -0.6095318  -0.5193222
 -0.48773346  0.11833938  0.12333759  0.23629357  0.38871984  0.40341411
  0.4333415   0.45140336  0.48982938  0.51582576  0.542807    0.56057152
  0.63086982  0.68144966  0.75362612  0.77477417  0.97554343  1.032104
  1.14870272  1.19553891  1.23949886  1.24478163  1.37874303  1.43617532
  1.46170641  1.51594741  1.58487461  1.63943669  1.70836089  1.75093582
  1.82339316  1.86142565  2.0151033   2.14977292  2.19401425  2.20037403
  2.25714013  2.37064011  2.37951767  2.47668974  2.51481253  2.57420482
  2.60166898  2.60866057  2.66271266  2.79308898  2.85857485  2.89318359
  2.95493535  2.99225934  3.07652992  3.14650136  3.36912182  3.41667052
  3.48462995  3.5827501   3.63436996  3.83840199  3.88315509  4.09588324
  4.12504946  4.25724339  4.29716895  4.31464103  4.34425843  4.47144651
  4.5151249   4.54556257  4.64891247  4.6508387   4.81235592  4.81290429
  4.91975691  4.92593785  4.9990768   5.01641044  5.23526218  5.50849085
  5.79513894  6.1749642   6.21482339  6.22062965  6.26088828  6.48960832
  6.8340714   6.84970327  6.96638225  6.98045012  7.03577727  7.05274024
  7.17194666  7.21761741  7.30069141  7.37851014  7.62188234  7.79614511
  7.85264264  7.86300985  7.8696765   7.94824686  7.95224724  8.00797801
  8.02639119  8.03642073  8.12790804  8.20299533  8.22767805  8.32761624
  8.45751628  8.54279175  8.7107115   8.75001605  8.82519678  8.88650844
  9.04806329  9.3024366   9.30289414  9.33608293  9.35619774  9.513735
  9.53129063  9.70116072  9.87338863  9.94906896 10.33606985 10.34316183
 10.41493011 10.67862852 10.92976384 11.0083175  11.16503573 11.23838268
 11.51483977 11.53970063 11.76865146 11.78177652 11.98900074 12.15398246
 12.15619722 12.18564272 12.2907717  12.54663819 12.56634098 12.62348105
 12.72709117 12.88753016 12.89480389 12.96217101 13.41626744 13.45544684
 13.7513446  13.91530762 14.26198882 14.51292116 14.72571281 14.74609577
 14.82047743 15.06261858 16.75757476 16.88456577 32.95886653 33.18402778]
E1 = -100.34467162531251  E_coul = 44.405369284924454
cycle= 8 E= -32.6061538531573  delta_E= -2.75e-08  |g|= 6.72e-05  |ddm|= 0.000599
    CPU time for cycle= 8     73.00 sec, wall time      0.57 sec
  HOMO = -0.487729853500644  LUMO = 0.118339740142543
  mo_energy =
[-1.49277272 -1.23007436 -0.71530597 -0.71220197 -0.60954776 -0.51931636
 -0.48772985  0.11833974  0.12333736  0.23629615  0.3887193   0.40341494
  0.43334217  0.45140183  0.48982975  0.51582671  0.54280783  0.56057226
  0.63086946  0.6814508   0.75362634  0.77477533  0.97554408  1.0321039
  1.14869981  1.19553883  1.23949925  1.24478018  1.37874409  1.43617635
  1.46170479  1.51594636  1.58487549  1.63943822  1.7083623   1.75093806
  1.82339392  1.86142735  2.01510394  2.14977364  2.19401504  2.20037537
  2.25714023  2.37064041  2.37951812  2.4766893   2.51481223  2.57420601
  2.60166857  2.60866029  2.66271211  2.79308852  2.8585748   2.89318303
  2.95493561  2.99225893  3.07652975  3.14650234  3.36912241  3.41667108
  3.48462938  3.58274861  3.63436865  3.83839937  3.88315589  4.09588078
  4.12504881  4.25724559  4.29716832  4.31464204  4.34425959  4.47144617
  4.5151245   4.54556316  4.64891394  4.65084089  4.8123561   4.81290495
  4.91975854  4.92593594  4.9990803   5.01641163  5.23526697  5.50849147
  5.79514026  6.17496413  6.21482355  6.22063029  6.26088922  6.48960785
  6.83407204  6.84970431  6.9663829   6.98045056  7.0357781   7.05273905
  7.17194553  7.21761796  7.30069175  7.37850899  7.62188205  7.79614463
  7.85264224  7.86300931  7.86967753  7.94824778  7.95224787  8.00797817
  8.02639104  8.0364209   8.12790781  8.2029968   8.22767829  8.32761551
  8.45751663  8.54279077  8.71071327  8.75001619  8.8251962   8.88651045
  9.04806416  9.30243711  9.30289266  9.33608344  9.35619787  9.5137367
  9.53128908  9.70115953  9.87338739  9.94906454 10.33607033 10.34316191
 10.41492767 10.67862669 10.92976032 11.00831403 11.16503249 11.23838171
 11.51483925 11.53970205 11.76865018 11.78177607 11.98900121 12.15398539
 12.15619657 12.18564495 12.29077335 12.54663842 12.56634064 12.62348201
 12.72709585 12.88753695 12.89481041 12.96216986 13.41627041 13.45544579
 13.75134945 13.91530951 14.26199097 14.51292137 14.72570924 14.74609345
 14.8204812  15.06261978 16.75757428 16.88456471 32.95886729 33.1840285 ]
E1 = -100.34468259149476  E_coul = 44.40538024513586
cycle= 9 E= -32.6061538591282  delta_E= -5.97e-09  |g|= 1.86e-05  |ddm|= 0.000333
    CPU time for cycle= 9     78.14 sec, wall time      0.61 sec
  HOMO = -0.487731726554908  LUMO = 0.118339278747669
  mo_energy =
[-1.49277429 -1.23007653 -0.71530733 -0.71220368 -0.60955271 -0.5193154
 -0.48773173  0.11833928  0.12333685  0.2362942   0.3887193   0.40341524
  0.43334174  0.45140114  0.48982926  0.51582641  0.54280736  0.56057105
  0.63086879  0.68145022  0.75362561  0.77477489  0.97554313  1.0321036
  1.14869913  1.19553777  1.23949848  1.24477926  1.37874346  1.43617573
  1.46170406  1.51594563  1.58487448  1.63943723  1.70836146  1.75093692
  1.82339315  1.86142637  2.01510262  2.14977257  2.19401422  2.20037446
  2.25713902  2.37063942  2.37951709  2.47668799  2.51481105  2.57420497
  2.6016675   2.60865913  2.66271087  2.79308707  2.85857391  2.89318223
  2.95493462  2.99225772  3.07652844  3.14650093  3.36912115  3.41666955
  3.48462864  3.58274757  3.63436799  3.83839845  3.88315432  4.09587951
  4.12504795  4.25724407  4.2971671   4.3146407   4.34425858  4.47144439
  4.51512221  4.54556196  4.64891194  4.65083908  4.81235454  4.81290371
  4.91975754  4.92593413  4.99907892  5.01640984  5.23526471  5.50848985
  5.79513839  6.17496263  6.21482205  6.22062881  6.26088787  6.48960604
  6.83407029  6.84970258  6.96638081  6.98044874  7.03577566  7.05273666
  7.17194356  7.21761575  7.30069025  7.3785071   7.6218803   7.79614283
  7.8526406   7.86300731  7.86967549  7.94824597  7.95224581  8.00797644
  8.02638916  8.03641914  8.12790542  8.20299513  8.22767654  8.32761346
  8.45751437  8.54278876  8.71071138  8.75001435  8.82519442  8.88650888
  9.0480627   9.30243533  9.30289049  9.3360815   9.35619614  9.51373537
  9.53128743  9.70115768  9.87338609  9.94906297 10.33606851 10.34316023
 10.41492577 10.678625   10.92975826 11.00831176 11.16503049 11.23838009
 11.51483698 11.53970024 11.76864805 11.78177365 11.98899839 12.153983
 12.15619359 12.18564235 12.29076989 12.54663546 12.56633749 12.62347927
 12.72709262 12.88753321 12.89480794 12.96216611 13.41626711 13.45544224
 13.75134605 13.91530624 14.26198783 14.51291907 14.72570542 14.74609013
 14.82047872 15.06261653 16.75757147 16.88456185 32.95886242 33.18402364]
E1 = -100.34469010468021  E_coul = 44.405387757942904
cycle= 10 E= -32.6061538595066  delta_E= -3.78e-10  |g|= 5.75e-06  |ddm|= 7.33e-05
    CPU time for cycle= 10     41.94 sec, wall time      0.33 sec
  HOMO = -0.487731441642364  LUMO = 0.118339422989271
  mo_energy =
[-1.49277359 -1.23007585 -0.71530665 -0.71220296 -0.60955253 -0.51931427
 -0.48773144  0.11833942  0.12333698  0.23629447  0.38871925  0.40341544
  0.43334188  0.45140155  0.4898294   0.5158264   0.54280749  0.56057124
  0.63086895  0.68145048  0.75362578  0.77477512  0.97554339  1.03210377
  1.14869917  1.19553808  1.23949881  1.24477942  1.37874373  1.43617603
  1.46170427  1.5159458   1.58487477  1.63943745  1.7083617   1.75093721
  1.82339335  1.86142661  2.015103    2.14977284  2.19401455  2.20037478
  2.2571393   2.37063973  2.37951735  2.47668842  2.51481128  2.57420531
  2.6016678   2.60865942  2.66271111  2.79308735  2.85857412  2.89318253
  2.9549349   2.99225791  3.07652896  3.1465013   3.36912162  3.41667001
  3.48462907  3.58274805  3.63436841  3.83839891  3.88315464  4.09587983
  4.12504837  4.25724469  4.29716752  4.31464122  4.34425897  4.47144478
  4.51512271  4.54556256  4.64891234  4.6508396   4.8123549   4.81290416
  4.91975806  4.92593455  4.99907923  5.0164102   5.23526523  5.50849042
  5.79513889  6.17496304  6.21482243  6.22062928  6.26088836  6.48960662
  6.83407086  6.84970308  6.96638154  6.98044932  7.03577625  7.05273724
  7.17194414  7.21761643  7.30069099  7.37850776  7.62188079  7.79614337
  7.85264111  7.86300795  7.86967609  7.94824664  7.95224647  8.007977
  8.0263898   8.03641969  8.12790607  8.20299566  8.22767704  8.32761394
  8.45751503  8.54278929  8.71071198  8.75001494  8.82519499  8.88650947
  9.04806334  9.3024359   9.30289103  9.33608211  9.35619675  9.51373607
  9.53128822  9.70115829  9.87338691  9.94906357 10.33606914 10.34316093
 10.41492634 10.67862571 10.92975906 11.00831244 11.16503118 11.2383809
 11.51483779 11.53970113 11.7686489  11.78177447 11.98899926 12.15398401
 12.1561945  12.18564331 12.29077072 12.54663649 12.56633846 12.62348034
 12.72709347 12.887534   12.894809   12.96216697 13.41626826 13.45544336
 13.75134708 13.91530732 14.26198887 14.5129203  14.72570639 14.74609117
 14.82047981 15.0626176  16.75757254 16.88456292 32.95886416 33.18402537]
E1 = -100.34468574064906  E_coul = 44.40538339389051
Extra cycle  E= -32.6061538595278  delta_E= -2.12e-11  |g|= 3.15e-06  |ddm|= 1.24e-05
    CPU time for scf_cycle    882.50 sec, wall time      7.29 sec
    CPU time for SCF    882.52 sec, wall time      7.29 sec
converged SCF energy = -32.6061538595278
