#INFO: **** input file is /home/nkousuke/lustre/toBeSync/turboRVB/05turbo-genius-development/turbogenius_paper/04data/sanity_checks/03pyscf_HF_turbo_VMC_via_trexio/00open_boundary/results/P2/pyscf-HF-workflow/run.py ****

from pyscf_wrapper import Pyscf_wrapper

# input variables
pyscf_chkfile="pyscf.chk"
structure_file="P2.xyz"

# input variables
omp_num_threads=128
charge=0
spin=0
basis="ccecp-ccpvqz"
ecp="ccecp"
scf_method="HF"
dft_xc="NA"
solver_newton=False
MP2_flag=False
CCSD_flag=False
pyscf_output="out.pyscf"
twist_average=False
exp_to_discard=0.0
kpt=[0.0, 0.0, 0.0]
kpt_grid=[1, 1, 1]
smearing_method="fermi"
smearing_sigma=0.0

pyscf_calc=Pyscf_wrapper(
                        structure_file=structure_file,
                        chkfile=pyscf_chkfile,
                        )

pyscf_calc.run_pyscf(
                  omp_num_threads=omp_num_threads,
                  charge=charge,
                  spin=spin,
                  basis=basis,
                  ecp=ecp,
                  scf_method=scf_method,
                  dft_xc=dft_xc,
                  solver_newton=solver_newton,
                  MP2_flag=MP2_flag,
                  CCSD_flag=CCSD_flag,
                  pyscf_output=pyscf_output,
                  twist_average=twist_average,
                  exp_to_discard=exp_to_discard,
                  kpt=kpt,
                  kpt_grid=kpt_grid,
                  smearing_method=smearing_method,
                  smearing_sigma=smearing_sigma
                  )
                #INFO: ******************** input file end ********************


System: uname_result(system='Linux', node='spcc-200', release='5.4.0-66-generic', version='#74-Ubuntu SMP Wed Jan 27 22:54:38 UTC 2021', machine='x86_64', processor='x86_64')  Threads 128
Python 3.7.3 (default, Mar 27 2019, 22:11:17) 
[GCC 7.3.0]
numpy 1.20.1  scipy 1.7.3
Date: Mon Dec 19 18:10:38 2022
PySCF version 2.0.1
PySCF path  /home/nkousuke/application/anaconda3/lib/python3.7/site-packages/pyscf

[CONFIG] conf_file /home/nkousuke/.pyscf_conf.py
[INPUT] verbose = 5
[INPUT] max_memory = 507549.390625 
[INPUT] num. atoms = 2
[INPUT] num. electrons = 10
[INPUT] charge = 0
[INPUT] spin (= nelec alpha-beta = 2S) = 0
[INPUT] symmetry False subgroup None
[INPUT] Mole.unit = A
[INPUT]  1 P      0.000000000000   0.000000000000   0.946750000000 AA    0.000000000000   0.000000000000   1.789098208432 Bohr
[INPUT]  2 P      0.000000000000   0.000000000000  -0.946750000000 AA    0.000000000000   0.000000000000  -1.789098208432 Bohr
[INPUT] ---------------- BASIS SET ---------------- 
[INPUT] l, kappa, [nprim/nctr], expnt,             c_1 c_2 ...
[INPUT] P
[INPUT] 0    0    [10   /1   ]  5.054268          0.001781
                                3.094719          0.077653
                                1.894891          -0.312344
                                1.160239          -0.045804
                                0.710412          -0.029427
                                0.434984          0.31856
                                0.26634           0.309169
                                0.16308           0.376899
                                0.099853          0.152113
                                0.06114           0.054943
[INPUT] 0    0    [1    /1   ]  0.636005             1
[INPUT] 0    0    [1    /1   ]  0.25859              1
[INPUT] 0    0    [1    /1   ]  0.105139             1
[INPUT] 1    0    [10   /1   ]  5.861284          -0.00316
                                3.406365          0.007462
                                1.979655          -0.060893
                                1.150503          0.015297
                                0.668631          0.123431
                                0.388584          0.257276
                                0.225831          0.305131
                                0.131245          0.276016
                                0.076275          0.134133
                                0.044328          0.040073
[INPUT] 1    0    [1    /1   ]  1.653678             1
[INPUT] 1    0    [1    /1   ]  0.679946             1
[INPUT] 1    0    [1    /1   ]  0.279575             1
[INPUT] 2    0    [1    /1   ]  1.375779             1
[INPUT] 2    0    [1    /1   ]  0.502887             1
[INPUT] 2    0    [1    /1   ]  0.18382              1
[INPUT] 3    0    [1    /1   ]  0.72673              1
[INPUT] 3    0    [1    /1   ]  0.284724             1
[INPUT] 4    0    [1    /1   ]  0.59499              1

nuclear repulsion = 6.9867601124901
number of shells = 28
number of NR pGTOs = 180
number of NR cGTOs = 108
basis = ccecp-ccpvqz
ecp = ccecp
CPU time:         4.86


******** <class 'pyscf.scf.hf.RHF'> ********
method = RHF
initial guess = minao
damping factor = 0
level_shift factor = 0
DIIS = <class 'pyscf.scf.diis.CDIIS'>
diis_start_cycle = 1
diis_space = 8
SCF conv_tol = 1e-09
SCF conv_tol_grad = None
SCF max_cycles = 200
direct_scf = True
direct_scf_tol = 1e-13
chkfile to save SCF result = pyscf.chk
max_memory 507549 MB (current use 106 MB)
Set gradient conv threshold to 3.16228e-05
E1 = -33.784634859917226  E_coul = 14.3304902661731
init E= -12.467384481254
cond(S) = 8092.3767307341395
    CPU time for initialize scf    146.03 sec, wall time      1.33 sec
  HOMO = -0.287275838800073  LUMO = -0.0599558312296709
  mo_energy =
[-1.07499738 -0.57933241 -0.31452406 -0.31452406 -0.28727584 -0.05995583
 -0.05995583  0.12159597  0.23481101  0.30163002  0.30163002  0.30240417
  0.31913584  0.31913584  0.34823025  0.43147039  0.43147039  0.43276213
  0.43276213  0.4784853   0.4784853   0.50189191  0.65028693  0.67629062
  0.67629062  0.84927948  0.96523876  0.96523876  0.98756792  0.98756792
  0.99785002  1.02149762  1.02149762  1.13675611  1.13675611  1.21662099
  1.21662099  1.24598266  1.26259833  1.26259833  1.30379786  1.30379786
  1.36460108  1.40320299  1.40320299  1.45140298  1.45140298  1.45394537
  1.45394537  1.60561702  1.79546943  1.79546943  1.81963791  2.0234529
  2.1836375   2.1836375   2.21450648  2.56739427  2.56739427  2.57652445
  2.62467273  2.62467273  2.63047616  2.63047616  2.77912155  2.77912155
  2.8026849   2.8749977   2.8749977   2.91894396  2.91894396  2.96742743
  2.96742743  3.04583321  3.04583321  3.08457066  3.08457066  3.12943129
  3.12943129  3.18084572  3.18084572  3.2847291   3.34659279  3.34659279
  3.34873647  3.47616516  3.47616516  3.48717855  3.48717855  3.49542316
  3.52773863  3.52773863  3.60818755  3.60818755  3.75017977  3.75017977
  4.06804399  4.67762807  4.67762807  5.42846186  7.1039153   7.1039153
  7.3178205   7.3178205   7.66302939  7.6826536  12.1761652  12.30726133]
E1 = -34.05917718786743  E_coul = 14.337225827036313
cycle= 1 E= -12.735191248341  delta_E= -0.268  |g|= 0.107  |ddm|= 2.16
    CPU time for cycle= 1     24.52 sec, wall time      0.25 sec
  HOMO = -0.377879077260229  LUMO = 0.015128276365579
  mo_energy =
[-0.91573545 -0.61675657 -0.40666513 -0.37787908 -0.37787908  0.01512828
  0.01512828  0.13770747  0.24241851  0.30361865  0.30361865  0.31792278
  0.31792278  0.31896865  0.3414296   0.43677842  0.43677842  0.44255476
  0.44255476  0.48339289  0.48339289  0.50637481  0.6560905   0.68375704
  0.68375704  0.866526    0.96728207  0.96728207  0.99532417  0.99532417
  1.01796221  1.03536467  1.03536467  1.13500003  1.13500003  1.21861694
  1.21861694  1.24813316  1.26562623  1.26562623  1.30066895  1.30066895
  1.36452521  1.40346211  1.40346211  1.4612903   1.4612903   1.46859768
  1.46859768  1.64341663  1.79977452  1.79977452  1.81570695  2.01587061
  2.18478991  2.18478991  2.24700118  2.58372479  2.59946139  2.59946139
  2.64214205  2.64214205  2.6603067   2.6603067   2.77485908  2.77485908
  2.82898874  2.86941044  2.86941044  2.91431987  2.91431987  2.96938012
  2.96938012  3.04687877  3.04687877  3.09574507  3.09574507  3.12873434
  3.12873434  3.17913871  3.17913871  3.29687049  3.34678356  3.36898524
  3.36898524  3.48328105  3.48328105  3.49630006  3.49630006  3.52247709
  3.52247709  3.52579809  3.60813114  3.60813114  3.76090055  3.76090055
  4.12189238  4.70785235  4.70785235  5.45026774  7.10192727  7.10192727
  7.31457618  7.31457618  7.6710138   7.70667677 12.18201052 12.31109809]
E1 = -34.147656255856624  E_coul = 14.419220160036607
cycle= 2 E= -12.7416759833299  delta_E= -0.00648  |g|= 0.0347  |ddm|= 0.405
    CPU time for cycle= 2     43.42 sec, wall time      0.34 sec
  HOMO = -0.366592725502843  LUMO = 0.0256475293188718
  mo_energy =
[-0.89824723 -0.60700034 -0.40295476 -0.36659273 -0.36659273  0.02564753
  0.02564753  0.14307225  0.24976275  0.30974634  0.30974634  0.32626343
  0.32626343  0.32727322  0.34335337  0.44444561  0.44444561  0.44811545
  0.44811545  0.49007668  0.49007668  0.51165351  0.66373572  0.69059267
  0.69059267  0.87525096  0.97483344  0.97483344  1.00372486  1.00372486
  1.02945784  1.04618935  1.04618935  1.14101841  1.14101841  1.23019993
  1.23019993  1.25522397  1.2765529   1.2765529   1.30771471  1.30771471
  1.37258978  1.41006913  1.41006913  1.47139637  1.47139637  1.48127779
  1.48127779  1.66195328  1.81226296  1.81226296  1.82631387  2.02506277
  2.19536584  2.19536584  2.26398629  2.59680458  2.61684811  2.61684811
  2.65494937  2.65494937  2.67925665  2.67925665  2.78463258  2.78463258
  2.84670656  2.87886413  2.87886413  2.92624184  2.92624184  2.98197749
  2.98197749  3.05950018  3.05950018  3.1103032   3.1103032   3.13971395
  3.13971395  3.19089492  3.19089492  3.31141914  3.35940958  3.38644657
  3.38644657  3.49566603  3.49566603  3.51395257  3.51395257  3.53650742
  3.53650742  3.54359895  3.62148795  3.62148795  3.77602999  3.77602999
  4.14707253  4.72756617  4.72756617  5.469396    7.1190296   7.1190296
  7.33135714  7.33135714  7.69039618  7.72893354 12.20154227 12.33036496]
E1 = -34.12490175007681  E_coul = 14.395688359141687
cycle= 3 E= -12.742453278445  delta_E= -0.000777  |g|= 0.00788  |ddm|= 0.144
    CPU time for cycle= 3     37.73 sec, wall time      0.29 sec
  HOMO = -0.370419057691878  LUMO = 0.0236301761661895
  mo_energy =
[-0.90379432 -0.60899684 -0.40675384 -0.37041906 -0.37041906  0.02363018
  0.02363018  0.14273262  0.24704007  0.30752547  0.30752547  0.32339238
  0.32339238  0.32533664  0.34290449  0.44268237  0.44268237  0.44663777
  0.44663777  0.48813195  0.48813195  0.51044281  0.6621542   0.68898788
  0.68898788  0.87299895  0.97223605  0.97223605  1.0010754   1.0010754
  1.02563587  1.04263525  1.04263525  1.13894691  1.13894691  1.22629678
  1.22629678  1.25397986  1.27254917  1.27254917  1.30608354  1.30608354
  1.37092078  1.40848451  1.40848451  1.46904561  1.46904561  1.47683166
  1.47683166  1.65598947  1.80812248  1.80812248  1.82369259  2.02299616
  2.19253784  2.19253784  2.25933103  2.59345078  2.61102725  2.61102725
  2.65091071  2.65091071  2.67305998  2.67305998  2.78069552  2.78069552
  2.8413473   2.8750113   2.8750113   2.92144227  2.92144227  2.97674582
  2.97674582  3.05630651  3.05630651  3.10564771  3.10564771  3.13648345
  3.13648345  3.18912688  3.18912688  3.30824701  3.35675502  3.38016454
  3.38016454  3.49124752  3.49124752  3.50890585  3.50890585  3.53086557
  3.53086557  3.53783787  3.61817533  3.61817533  3.77129874  3.77129874
  4.13903268  4.72166459  4.72166459  5.46477558  7.11253951  7.11253951
  7.32513694  7.32513694  7.68518698  7.72196628 12.19427624 12.32325789]
E1 = -34.13602057984799  E_coul = 14.406776162924404
cycle= 4 E= -12.7424843044335  delta_E= -3.1e-05  |g|= 0.000963  |ddm|= 0.0235
    CPU time for cycle= 4     37.29 sec, wall time      0.29 sec
  HOMO = -0.370675238252428  LUMO = 0.023445990855007
  mo_energy =
[-0.90400334 -0.6091904  -0.4070333  -0.37067524 -0.37067524  0.02344599
  0.02344599  0.14265231  0.24691436  0.30734434  0.30734434  0.32318396
  0.32318396  0.32502385  0.34278466  0.44247556  0.44247556  0.44650282
  0.44650282  0.48791469  0.48791469  0.51031461  0.66197149  0.68879416
  0.68879416  0.87279784  0.97203989  0.97203989  1.0008806   1.0008806
  1.02547601  1.04240689  1.04240689  1.13871966  1.13871966  1.22591665
  1.22591665  1.25377821  1.2721623   1.2721623   1.30579099  1.30579099
  1.37064851  1.40827807  1.40827807  1.46879218  1.46879218  1.47652399
  1.47652399  1.65566986  1.80773253  1.80773253  1.82330743  2.02261891
  2.19219759  2.19219759  2.25910017  2.59310488  2.61075168  2.61075168
  2.65059166  2.65059166  2.67273992  2.67273992  2.78029651  2.78029651
  2.8409848   2.87460043  2.87460043  2.92094736  2.92094736  2.97627811
  2.97627811  3.05588856  3.05588856  3.10522837  3.10522837  3.1361019
  3.1361019   3.18873735  3.18873735  3.30788722  3.35633503  3.37974511
  3.37974511  3.49075086  3.49075086  3.50850272  3.50850272  3.53027954
  3.53027954  3.53752149  3.61774008  3.61774008  3.77088856  3.77088856
  4.1386452   4.72129081  4.72129081  5.46436464  7.11189038  7.11189038
  7.324489    7.324489    7.68463601  7.7214216  12.19361492 12.32258609]
E1 = -34.13593269596706  E_coul = 14.406687506934306
cycle= 5 E= -12.7424850765427  delta_E= -7.72e-07  |g|= 0.00026  |ddm|= 0.00368
    CPU time for cycle= 5     30.78 sec, wall time      0.24 sec
  HOMO = -0.370640923466044  LUMO = 0.023522769404743
  mo_energy =
[-0.90392541 -0.60913707 -0.40695547 -0.37064092 -0.37064092  0.02352277
  0.02352277  0.14267597  0.24697799  0.30737098  0.30737098  0.32323214
  0.32323214  0.3250656   0.34282019  0.44252752  0.44252752  0.4465319
  0.4465319   0.48795981  0.48795981  0.51034196  0.66202687  0.68883691
  0.68883691  0.87286436  0.9720812   0.9720812   1.00092421  1.00092421
  1.02554534  1.04247053  1.04247053  1.1387544   1.1387544   1.22599446
  1.22599446  1.25383614  1.27223411  1.27223411  1.30584821  1.30584821
  1.37071606  1.40832442  1.40832442  1.46886168  1.46886168  1.47659062
  1.47659062  1.65575892  1.80781322  1.80781322  1.82339292  2.02270813
  2.1922844   2.1922844   2.25919082  2.59320846  2.61082795  2.61082795
  2.65066593  2.65066593  2.67282093  2.67282093  2.78036195  2.78036195
  2.84107856  2.8746653   2.8746653   2.92103501  2.92103501  2.97636571
  2.97636571  3.05598642  3.05598642  3.10532204  3.10532204  3.13617834
  3.13617834  3.18884142  3.18884142  3.30799666  3.35644222  3.3798334
  3.3798334   3.4908442   3.4908442   3.50861563  3.50861563  3.53039033
  3.53039033  3.53760114  3.61784429  3.61784429  3.77099441  3.77099441
  4.13874075  4.72140323  4.72140323  5.46448821  7.11202546  7.11202546
  7.32462447  7.32462447  7.68478519  7.72155185 12.19375759 12.32272998]
E1 = -34.13590748443166  E_coul = 14.406662221753631
cycle= 6 E= -12.7424851501879  delta_E= -7.36e-08  |g|= 3.25e-05  |ddm|= 0.0016
    CPU time for cycle= 6     33.19 sec, wall time      0.26 sec
  HOMO = -0.370640890916641  LUMO = 0.0235234582832192
  mo_energy =
[-0.90392315 -0.60913751 -0.40694998 -0.37064089 -0.37064089  0.02352346
  0.02352346  0.14267254  0.24698244  0.30736905  0.30736905  0.32323525
  0.32323525  0.32506168  0.34281924  0.44252694  0.44252694  0.44653114
  0.44653114  0.48796091  0.48796091  0.51034181  0.66202561  0.68883576
  0.68883576  0.87286305  0.97208489  0.97208489  1.00092579  1.00092579
  1.02554763  1.0424704   1.0424704   1.13875646  1.13875646  1.22599393
  1.22599393  1.25383437  1.27223351  1.27223351  1.30584458  1.30584458
  1.37071273  1.40832483  1.40832483  1.46886085  1.46886085  1.47659044
  1.47659044  1.65575736  1.80781192  1.80781192  1.82338839  2.02270219
  2.19228253  2.19228253  2.25919038  2.59320562  2.61082993  2.61082993
  2.65066776  2.65066776  2.67281981  2.67281981  2.78036475  2.78036475
  2.84107498  2.87466782  2.87466782  2.92103515  2.92103515  2.97636703
  2.97636703  3.05598298  3.05598298  3.10531968  3.10531968  3.13617825
  3.13617825  3.18883428  3.18883428  3.30798995  3.35643584  3.37983021
  3.37983021  3.49084124  3.49084124  3.50861006  3.50861006  3.53038655
  3.53038655  3.53759982  3.61783922  3.61783922  3.77099303  3.77099303
  4.13873282  4.72140007  4.72140007  5.46447997  7.11201795  7.11201795
  7.32461656  7.32461656  7.68477371  7.72154053 12.19374789 12.32271999]
E1 = -34.13591582944989  E_coul = 14.406670565897448
cycle= 7 E= -12.7424851510623  delta_E= -8.74e-10  |g|= 3.71e-06  |ddm|= 0.000255
    CPU time for cycle= 7     46.06 sec, wall time      0.36 sec
  HOMO = -0.3706401928451  LUMO = 0.0235243812853783
  mo_energy =
[-0.90392195 -0.60913652 -0.40694849 -0.37064019 -0.37064019  0.02352438
  0.02352438  0.14267302  0.24698326  0.30736958  0.30736958  0.32323605
  0.32323605  0.32506298  0.34282007  0.44252771  0.44252771  0.4465316
  0.4465316   0.48796167  0.48796167  0.51034233  0.66202645  0.68883657
  0.68883657  0.87286435  0.97208553  0.97208553  1.0009266   1.0009266
  1.02554874  1.04247156  1.04247156  1.13875713  1.13875713  1.22599523
  1.22599523  1.25383528  1.27223488  1.27223488  1.30584568  1.30584568
  1.37071387  1.40832559  1.40832559  1.46886193  1.46886193  1.47659179
  1.47659179  1.65575913  1.80781333  1.80781333  1.8233899   2.02270378
  2.19228392  2.19228392  2.25919187  2.59320716  2.6108314   2.6108314
  2.65066912  2.65066912  2.67282149  2.67282149  2.78036602  2.78036602
  2.84107677  2.87466911  2.87466911  2.9210368   2.9210368   2.97636866
  2.97636866  3.05598464  3.05598464  3.10532142  3.10532142  3.13617966
  3.13617966  3.1888359   3.1888359   3.3079917   3.3564375   3.37983205
  3.37983205  3.49084296  3.49084296  3.50861201  3.50861201  3.53038858
  3.53038858  3.53760143  3.61784089  3.61784089  3.77099483  3.77099483
  4.13873495  4.72140202  4.72140202  5.46448194  7.11202035  7.11202035
  7.32461896  7.32461896  7.68477605  7.72154292 12.19375044 12.32272253]
E1 = -34.13591533498422  E_coul = 14.406670071422504
Extra cycle  E= -12.7424851510716  delta_E= -9.27e-12  |g|= 1.18e-06  |ddm|= 2.27e-05
    CPU time for scf_cycle    490.72 sec, wall time      4.13 sec
    CPU time for SCF    491.18 sec, wall time      4.14 sec
converged SCF energy = -12.7424851510716
