#INFO: **** input file is /home/nkousuke/lustre/toBeSync/turboRVB/05turbo-genius-development/turbogenius_paper/04data/sanity_checks/03pyscf_HF_turbo_VMC_via_trexio/00open_boundary/results/Si2/pyscf-HF-workflow/run.py ****

from pyscf_wrapper import Pyscf_wrapper

# input variables
pyscf_chkfile="pyscf.chk"
structure_file="Si2.xyz"

# input variables
omp_num_threads=128
charge=0
spin=0
basis="ccecp-ccpvqz"
ecp="ccecp"
scf_method="HF"
dft_xc="NA"
solver_newton=False
MP2_flag=False
CCSD_flag=False
pyscf_output="out.pyscf"
twist_average=False
exp_to_discard=0.0
kpt=[0.0, 0.0, 0.0]
kpt_grid=[1, 1, 1]
smearing_method="fermi"
smearing_sigma=0.0

pyscf_calc=Pyscf_wrapper(
                        structure_file=structure_file,
                        chkfile=pyscf_chkfile,
                        )

pyscf_calc.run_pyscf(
                  omp_num_threads=omp_num_threads,
                  charge=charge,
                  spin=spin,
                  basis=basis,
                  ecp=ecp,
                  scf_method=scf_method,
                  dft_xc=dft_xc,
                  solver_newton=solver_newton,
                  MP2_flag=MP2_flag,
                  CCSD_flag=CCSD_flag,
                  pyscf_output=pyscf_output,
                  twist_average=twist_average,
                  exp_to_discard=exp_to_discard,
                  kpt=kpt,
                  kpt_grid=kpt_grid,
                  smearing_method=smearing_method,
                  smearing_sigma=smearing_sigma
                  )
                #INFO: ******************** input file end ********************


System: uname_result(system='Linux', node='spcc-145', release='5.4.0-66-generic', version='#74-Ubuntu SMP Wed Jan 27 22:54:38 UTC 2021', machine='x86_64', processor='x86_64')  Threads 128
Python 3.7.3 (default, Mar 27 2019, 22:11:17) 
[GCC 7.3.0]
numpy 1.20.1  scipy 1.7.3
Date: Mon Dec 19 18:05:21 2022
PySCF version 2.0.1
PySCF path  /home/nkousuke/application/anaconda3/lib/python3.7/site-packages/pyscf

[CONFIG] conf_file /home/nkousuke/.pyscf_conf.py
[INPUT] verbose = 5
[INPUT] max_memory = 506563.015625 
[INPUT] num. atoms = 2
[INPUT] num. electrons = 8
[INPUT] charge = 0
[INPUT] spin (= nelec alpha-beta = 2S) = 0
[INPUT] symmetry False subgroup None
[INPUT] Mole.unit = A
[INPUT]  1 Si     0.000000000000   0.000000000000   1.123150000000 AA    0.000000000000   0.000000000000   2.122445896805 Bohr
[INPUT]  2 Si     0.000000000000   0.000000000000  -1.123150000000 AA    0.000000000000   0.000000000000  -2.122445896805 Bohr
[INPUT] ---------------- BASIS SET ---------------- 
[INPUT] l, kappa, [nprim/nctr], expnt,             c_1 c_2 ...
[INPUT] Si
[INPUT] 0    0    [10   /1   ]  9.998274          0.002894
                                5.517644          -0.014523
                                3.044965          0.077634
                                1.680393          -0.224022
                                0.927341          -0.14908
                                0.511762          0.085944
                                0.282421          0.355394
                                0.155857          0.445219
                                0.086011          0.26723
                                0.047466          0.060787
[INPUT] 0    0    [1    /1   ]  0.488504             1
[INPUT] 0    0    [1    /1   ]  0.199457             1
[INPUT] 0    0    [1    /1   ]  0.081439             1
[INPUT] 1    0    [10   /1   ]  5.027868          -0.003242
                                2.867751          0.010649
                                1.635683          -0.049761
                                0.932947          -1.7e-05
                                0.532126          0.10606
                                0.303509          0.236202
                                0.173113          0.310665
                                0.098739          0.294696
                                0.056318          0.153898
                                0.032122          0.042337
[INPUT] 1    0    [1    /1   ]  1.22579              1
[INPUT] 1    0    [1    /1   ]  0.501364             1
[INPUT] 1    0    [1    /1   ]  0.205064             1
[INPUT] 2    0    [1    /1   ]  0.997003             1
[INPUT] 2    0    [1    /1   ]  0.365942             1
[INPUT] 2    0    [1    /1   ]  0.134316             1
[INPUT] 3    0    [1    /1   ]  0.549116             1
[INPUT] 3    0    [1    /1   ]  0.214998             1
[INPUT] 4    0    [1    /1   ]  0.459547             1

nuclear repulsion = 3.76923624392111
number of shells = 28
number of NR pGTOs = 180
number of NR cGTOs = 108
basis = ccecp-ccpvqz
ecp = ccecp
CPU time:         4.76


******** <class 'pyscf.scf.hf.RHF'> ********
method = RHF
initial guess = minao
damping factor = 0
level_shift factor = 0
DIIS = <class 'pyscf.scf.diis.CDIIS'>
diis_start_cycle = 1
diis_space = 8
SCF conv_tol = 1e-09
SCF conv_tol_grad = None
SCF max_cycles = 200
direct_scf = True
direct_scf_tol = 1e-13
chkfile to save SCF result = pyscf.chk
max_memory 506563 MB (current use 106 MB)
Set gradient conv threshold to 3.16228e-05
E1 = -18.69169677455832  E_coul = 7.766136461318229
init E= -7.15632406931898
cond(S) = 6000.314037180548
    CPU time for initialize scf    147.25 sec, wall time      1.35 sec
  HOMO = -0.166608185093297  LUMO = -0.15521763660501
  mo_energy =
[-7.83937044e-01 -4.40478085e-01 -1.66608185e-01 -1.66608185e-01
 -1.55217637e-01 -3.02241187e-03 -3.02241187e-03  8.97945947e-02
  1.99582572e-01  2.35511896e-01  2.45619010e-01  2.45619010e-01
  2.60061938e-01  2.60061938e-01  2.67801890e-01  3.33804530e-01
  3.33804530e-01  3.37395513e-01  3.37395513e-01  3.72264358e-01
  3.72264358e-01  3.93624544e-01  5.11274256e-01  5.13377498e-01
  5.13377498e-01  6.28138677e-01  7.45054088e-01  7.45054088e-01
  7.57160205e-01  7.57160205e-01  7.93261895e-01  7.99259574e-01
  7.99259574e-01  8.66352485e-01  8.66352485e-01  9.50739089e-01
  9.53700851e-01  9.53700851e-01  9.85694953e-01  9.85694953e-01
  1.01536523e+00  1.01536523e+00  1.05587713e+00  1.06275955e+00
  1.06275955e+00  1.10587304e+00  1.10587304e+00  1.12393509e+00
  1.12393509e+00  1.23045329e+00  1.34494684e+00  1.34494684e+00
  1.42415291e+00  1.56245233e+00  1.61498487e+00  1.61498487e+00
  1.66074037e+00  1.98200460e+00  2.01228657e+00  2.01228657e+00
  2.03765925e+00  2.03765925e+00  2.07554533e+00  2.07554533e+00
  2.15874719e+00  2.18379307e+00  2.18379307e+00  2.24164421e+00
  2.24164421e+00  2.27208257e+00  2.27208257e+00  2.30295025e+00
  2.30295025e+00  2.34976340e+00  2.34976340e+00  2.38531750e+00
  2.38531750e+00  2.41405230e+00  2.41405230e+00  2.47396145e+00
  2.47396145e+00  2.51668624e+00  2.57629222e+00  2.57629222e+00
  2.58287654e+00  2.64006313e+00  2.64006313e+00  2.66406256e+00
  2.66406256e+00  2.67069443e+00  2.67069443e+00  2.67162404e+00
  2.74413321e+00  2.74413321e+00  2.83621617e+00  2.83621617e+00
  3.03295147e+00  3.49976634e+00  3.49976634e+00  4.07510402e+00
  5.13774886e+00  5.13774886e+00  5.27918957e+00  5.27918957e+00
  5.53103944e+00  5.55595677e+00  9.81303927e+00  1.00532461e+01]
E1 = -18.74893634074853  E_coul = 7.669583799842152
cycle= 1 E= -7.31011629698526  delta_E= -0.154  |g|= 0.107  |ddm|= 2.14
    CPU time for cycle= 1     40.74 sec, wall time      0.36 sec
  HOMO = -0.275005374115196  LUMO = -0.0899055577129633
  mo_energy =
[-0.68590758 -0.47289078 -0.27500537 -0.27500537 -0.08990556  0.01702287
  0.01702287  0.0828004   0.21247478  0.23387183  0.24449412  0.2446079
  0.2446079   0.26235472  0.26235472  0.33687187  0.33687187  0.33697871
  0.33697871  0.37334998  0.37334998  0.39250838  0.50385153  0.50514991
  0.50514991  0.61308716  0.76222291  0.76222291  0.76342023  0.76342023
  0.79871176  0.79871176  0.80272955  0.87581169  0.87581169  0.93002649
  0.95119485  0.95119485  0.98437603  0.98437603  0.98753356  0.98753356
  1.02211269  1.0570415   1.0570415   1.0944395   1.0944395   1.12899046
  1.12899046  1.23817462  1.33918076  1.33918076  1.39852491  1.50825538
  1.59394383  1.59394383  1.65424907  1.96605772  2.02808533  2.02808533
  2.04725961  2.04725961  2.07556956  2.07556956  2.15576571  2.19207785
  2.19207785  2.24889386  2.24889386  2.27238011  2.27238011  2.31117157
  2.31117157  2.32201348  2.32201348  2.37492592  2.37492592  2.40183031
  2.40183031  2.42322963  2.42322963  2.47255824  2.5351735   2.5721779
  2.5721779   2.61574242  2.61574242  2.64767098  2.64767098  2.65687651
  2.65687651  2.67564818  2.71145945  2.71145945  2.8246442   2.8246442
  3.02688768  3.49099732  3.49099732  4.03882378  5.11177499  5.11177499
  5.24927878  5.24927878  5.49968092  5.50910027  9.78355007 10.02227456]
E1 = -18.76769242096049  E_coul = 7.679158142313943
cycle= 2 E= -7.31929803472543  delta_E= -0.00918  |g|= 0.0293  |ddm|= 0.484
    CPU time for cycle= 2     64.96 sec, wall time      0.51 sec
  HOMO = -0.276802429291649  LUMO = -0.0787070765812409
  mo_energy =
[-0.68347696 -0.46747119 -0.27680243 -0.27680243 -0.07870708  0.02336835
  0.02336835  0.08836796  0.21233316  0.24502888  0.24517735  0.24517735
  0.25304373  0.26283326  0.26283326  0.33919803  0.33919803  0.34228894
  0.34228894  0.37765945  0.37765945  0.39637963  0.5104172   0.51126957
  0.51126957  0.62205628  0.76164134  0.76164134  0.76429786  0.76429786
  0.80069859  0.80069859  0.80164249  0.87820233  0.87820233  0.93957625
  0.95745926  0.95745926  0.99015614  0.99015614  0.9997253   0.9997253
  1.03617506  1.06323639  1.06323639  1.10262977  1.10262977  1.13093228
  1.13093228  1.23870558  1.34582317  1.34582317  1.41159889  1.52859481
  1.60537341  1.60537341  1.65805007  1.97636759  2.02539053  2.02539053
  2.04531036  2.04531036  2.08106308  2.08106308  2.15818541  2.19694086
  2.19694086  2.25432238  2.25432238  2.27922946  2.27922946  2.31662121
  2.31662121  2.33614927  2.33614927  2.38323202  2.38323202  2.41111429
  2.41111429  2.44357625  2.44357625  2.48915272  2.55512492  2.57589391
  2.57589391  2.62583364  2.62583364  2.65937847  2.65937847  2.66859167
  2.66859167  2.6756183   2.72749125  2.72749125  2.83322401  2.83322401
  3.02664878  3.49618206  3.49618206  4.05204582  5.12652221  5.12652221
  5.26522114  5.26522114  5.51121221  5.52799614  9.79843736 10.03807655]
E1 = -18.79695332247147  E_coul = 7.707504538676835
cycle= 3 E= -7.32021253987352  delta_E= -0.000915  |g|= 0.0112  |ddm|= 0.165
    CPU time for cycle= 3     52.70 sec, wall time      0.41 sec
  HOMO = -0.273385463880378  LUMO = -0.0735413838332666
  mo_energy =
[-0.67629419 -0.46470103 -0.27338546 -0.27338546 -0.07354138  0.02694254
  0.02694254  0.08916862  0.21661948  0.24715401  0.24715401  0.24780081
  0.25467798  0.26638566  0.26638566  0.3412401   0.3412401   0.3451951
  0.3451951   0.38034627  0.38034627  0.39841717  0.51311112  0.51367081
  0.51367081  0.62576906  0.76511822  0.76511822  0.76793979  0.76793979
  0.80526061  0.80526061  0.80698143  0.88108824  0.88108824  0.94219167
  0.96221908  0.96221908  0.99497109  0.99497109  1.00239333  1.00239333
  1.03888879  1.06604078  1.06604078  1.1064436   1.1064436   1.13617607
  1.13617607  1.24555968  1.3508775   1.3508775   1.41590001  1.53192003
  1.60974861  1.60974861  1.66410269  1.98180228  2.03206819  2.03206819
  2.0522828   2.0522828   2.08637837  2.08637837  2.16483034  2.20194245
  2.20194245  2.2592543   2.2592543   2.28506699  2.28506699  2.32274984
  2.32274984  2.34119436  2.34119436  2.3891761   2.3891761   2.41590986
  2.41590986  2.44772081  2.44772081  2.49406282  2.55947593  2.58250855
  2.58250855  2.63234558  2.63234558  2.66483676  2.66483676  2.67487977
  2.67487977  2.682214    2.73227655  2.73227655  2.83939177  2.83939177
  3.03451803  3.50333227  3.50333227  4.0583145   5.13356461  5.13356461
  5.27207729  5.27207729  5.51862146  5.534618    9.80598264 10.04552269]
E1 = -18.78942701595149  E_coul = 7.6998422645113065
cycle= 4 E= -7.32034850751907  delta_E= -0.000136  |g|= 0.0021  |ddm|= 0.0414
    CPU time for cycle= 4     70.45 sec, wall time      0.57 sec
  HOMO = -0.274869353468453  LUMO = -0.0754939045059608
  mo_energy =
[-0.67794654 -0.46651111 -0.27486935 -0.27486935 -0.0754939   0.0258042
  0.0258042   0.08871132  0.21565049  0.24620558  0.24620558  0.24637738
  0.25378916  0.26541893  0.26541893  0.34050226  0.34050226  0.3442755
  0.3442755   0.37949387  0.37949387  0.39773069  0.51211     0.51271406
  0.51271406  0.62414731  0.76431039  0.76431039  0.76679769  0.76679769
  0.80346493  0.80346493  0.80513717  0.88029654  0.88029654  0.94112743
  0.96042743  0.96042743  0.99311024  0.99311024  1.00102373  1.00102373
  1.03746095  1.06510613  1.06510613  1.10502952  1.10502952  1.13414198
  1.13414198  1.24281674  1.34886766  1.34886766  1.41387981  1.52988492
  1.60793233  1.60793233  1.66179006  1.97960214  2.02973104  2.02973104
  2.0495051   2.0495051   2.08450796  2.08450796  2.16196533  2.20030921
  2.20030921  2.25761975  2.25761975  2.28284701  2.28284701  2.32051437
  2.32051437  2.3389465   2.3389465   2.3866697   2.3866697   2.41407877
  2.41407877  2.44548693  2.44548693  2.49156714  2.55719321  2.57959808
  2.57959808  2.6292878   2.6292878   2.66239201  2.66239201  2.67202484
  2.67202484  2.67955442  2.73004857  2.73004857  2.83693944  2.83693944
  3.03073403  3.50035004  3.50035004  4.05515674  5.13005626  5.13005626
  5.26859908  5.26859908  5.51467099  5.53104294  9.80203999 10.04161615]
E1 = -18.791224571312522  E_coul = 7.7016362276032435
cycle= 5 E= -7.32035209978817  delta_E= -3.59e-06  |g|= 0.000328  |ddm|= 0.00663
    CPU time for cycle= 5     51.14 sec, wall time      0.40 sec
  HOMO = -0.274830243124573  LUMO = -0.0754619728797512
  mo_energy =
[-0.67789251 -0.46647359 -0.27483024 -0.27483024 -0.07546197  0.02586414
  0.02586414  0.088707    0.21568116  0.24621004  0.24621004  0.24640186
  0.2537865   0.26544479  0.26544479  0.34052535  0.34052535  0.34431204
  0.34431204  0.37951349  0.37951349  0.39773332  0.51213595  0.51272637
  0.51272637  0.62418228  0.76433148  0.76433148  0.76681466  0.76681466
  0.80350308  0.80350308  0.80519081  0.88030769  0.88030769  0.94114803
  0.96048895  0.96048895  0.99316126  0.99316126  1.00104899  1.00104899
  1.03749083  1.06512316  1.06512316  1.10506735  1.10506735  1.13419352
  1.13419352  1.24290244  1.34892988  1.34892988  1.41393155  1.52992357
  1.60798297  1.60798297  1.66186284  1.97968291  2.02979169  2.02979169
  2.04957883  2.04957883  2.08454656  2.08454656  2.16204452  2.20034295
  2.20034295  2.25765237  2.25765237  2.28291498  2.28291498  2.32058376
  2.32058376  2.33900637  2.33900637  2.38674038  2.38674038  2.41411455
  2.41411455  2.44554413  2.44554413  2.49163919  2.55726493  2.57968694
  2.57968694  2.62939021  2.62939021  2.66247177  2.66247177  2.67213368
  2.67213368  2.67962634  2.7301189   2.7301189   2.83701605  2.83701605
  3.03085434  3.50044852  3.50044852  4.05526727  5.13020489  5.13020489
  5.26874527  5.26874527  5.51482574  5.53119352  9.80221392 10.04179035]
E1 = -18.791076025840724  E_coul = 7.701487592409406
cycle= 6 E= -7.3203521895102  delta_E= -8.97e-08  |g|= 4.43e-05  |ddm|= 0.00248
    CPU time for cycle= 6     91.37 sec, wall time      0.72 sec
  HOMO = -0.274835226958965  LUMO = -0.0754779815082121
  mo_energy =
[-0.67789994 -0.46647646 -0.27483523 -0.27483523 -0.07547798  0.02586364
  0.02586364  0.0887068   0.21567477  0.24620731  0.24620731  0.24639813
  0.2537818   0.26543897  0.26543897  0.34052197  0.34052197  0.34430844
  0.34430844  0.3795087   0.3795087   0.39772876  0.51213446  0.51272371
  0.51272371  0.6241788   0.76432564  0.76432564  0.76681012  0.76681012
  0.80349804  0.80349804  0.8051854   0.88030108  0.88030108  0.94114591
  0.96047912  0.96047912  0.99315026  0.99315026  1.00104353  1.00104353
  1.03748692  1.06511886  1.06511886  1.10506377  1.10506377  1.13418513
  1.13418513  1.24289457  1.3489198   1.3489198   1.41392318  1.52991725
  1.60797572  1.60797572  1.66185995  1.97967559  2.02978533  2.02978533
  2.04957217  2.04957217  2.08453839  2.08453839  2.16203718  2.20032992
  2.20032992  2.25763904  2.25763904  2.28289975  2.28289975  2.32056853
  2.32056853  2.33899784  2.33899784  2.38673007  2.38673007  2.41410534
  2.41410534  2.44553959  2.44553959  2.49163457  2.55725907  2.57967557
  2.57967557  2.62938136  2.62938136  2.6624577   2.6624577   2.67211619
  2.67211619  2.67961881  2.73011183  2.73011183  2.83700672  2.83700672
  3.03084702  3.50044152  3.50044152  4.05526323  5.13018643  5.13018643
  5.26872729  5.26872729  5.51481422  5.53118345  9.80219518 10.04177147]
E1 = -18.791081762014787  E_coul = 7.7014933266455525
cycle= 7 E= -7.32035219144812  delta_E= -1.94e-09  |g|= 3.93e-06  |ddm|= 0.000216
    CPU time for cycle= 7     63.88 sec, wall time      0.50 sec
  HOMO = -0.274835209012164  LUMO = -0.0754776075016887
  mo_energy =
[-0.67790035 -0.46647642 -0.27483521 -0.27483521 -0.07547761  0.02586373
  0.02586373  0.08870721  0.2156749   0.24620694  0.24620694  0.24639862
  0.25378231  0.26543906  0.26543906  0.34052205  0.34052205  0.34430867
  0.34430867  0.37950883  0.37950883  0.39772911  0.51213471  0.51272395
  0.51272395  0.62417927  0.76432572  0.76432572  0.76681025  0.76681025
  0.80349797  0.80349797  0.80518537  0.88030121  0.88030121  0.94114622
  0.96047906  0.96047906  0.99315026  0.99315026  1.00104377  1.00104377
  1.03748721  1.06511909  1.06511909  1.10506398  1.10506398  1.13418515
  1.13418515  1.24289452  1.34891979  1.34891979  1.41392339  1.52991761
  1.6079759   1.6079759   1.66186006  1.97967563  2.02978532  2.02978532
  2.04957207  2.04957207  2.08453857  2.08453857  2.16203711  2.20033
  2.20033     2.25763913  2.25763913  2.28289963  2.28289963  2.3205684
  2.3205684   2.33899799  2.33899799  2.38673007  2.38673007  2.41410556
  2.41410556  2.44553986  2.44553986  2.49163476  2.55725921  2.5796754
  2.5796754   2.62938127  2.62938127  2.66245756  2.66245756  2.67211584
  2.67211584  2.67961879  2.73011192  2.73011192  2.83700676  2.83700676
  3.03084675  3.50044146  3.50044146  4.05526314  5.13018591  5.13018591
  5.2687268   5.2687268   5.5148138   5.53118314  9.80219457 10.04177085]
E1 = -18.791082790079994  E_coul = 7.701494354698401
cycle= 8 E= -7.32035219146048  delta_E= -1.24e-11  |g|= 4.74e-07  |ddm|= 4.89e-05
    CPU time for cycle= 8     64.11 sec, wall time      0.50 sec
  HOMO = -0.274835253442407  LUMO = -0.0754777232102446
  mo_energy =
[-0.6779002  -0.46647634 -0.27483525 -0.27483525 -0.07547772  0.02586371
  0.02586371  0.08870721  0.21567492  0.24620698  0.24620698  0.24639857
  0.2537823   0.26543907  0.26543907  0.34052205  0.34052205  0.34430865
  0.34430865  0.37950882  0.37950882  0.39772912  0.51213469  0.51272394
  0.51272394  0.62417926  0.76432573  0.76432573  0.76681026  0.76681026
  0.803498    0.803498    0.80518539  0.88030122  0.88030122  0.9411462
  0.96047906  0.96047906  0.99315027  0.99315027  1.00104374  1.00104374
  1.03748717  1.06511908  1.06511908  1.10506397  1.10506397  1.13418517
  1.13418517  1.24289456  1.34891978  1.34891978  1.41392338  1.52991756
  1.60797588  1.60797588  1.66186008  1.97967562  2.02978535  2.02978535
  2.04957211  2.04957211  2.08453858  2.08453858  2.16203713  2.20033001
  2.20033001  2.25763914  2.25763914  2.28289964  2.28289964  2.32056842
  2.32056842  2.33899797  2.33899797  2.38673008  2.38673008  2.41410555
  2.41410555  2.44553981  2.44553981  2.49163473  2.55725916  2.57967542
  2.57967542  2.62938127  2.62938127  2.66245756  2.66245756  2.67211584
  2.67211584  2.67961882  2.73011188  2.73011188  2.83700676  2.83700676
  3.03084679  3.50044148  3.50044148  4.05526313  5.13018591  5.13018591
  5.26872679  5.26872679  5.51481379  5.53118311  9.80219456 10.04177085]
E1 = -18.791082746742994  E_coul = 7.701494311361192
Extra cycle  E= -7.32035219146069  delta_E= -2.1e-13  |g|= 1.5e-07  |ddm|= 4.06e-06
    CPU time for scf_cycle    719.88 sec, wall time      5.90 sec
    CPU time for SCF    719.88 sec, wall time      5.90 sec
converged SCF energy = -7.32035219146069
