#INFO: **** input file is /home/nkousuke/lustre/toBeSync/turboRVB/05turbo-genius-development/turbogenius_paper/04data/sanity_checks/03pyscf_HF_turbo_VMC_via_trexio/00open_boundary/results/Na2/pyscf-HF-workflow/run.py ****

from pyscf_wrapper import Pyscf_wrapper

# input variables
pyscf_chkfile="pyscf.chk"
structure_file="Na2.xyz"

# input variables
omp_num_threads=128
charge=0
spin=0
basis="ccecp-ccpvqz"
ecp="ccecp"
scf_method="HF"
dft_xc="NA"
solver_newton=False
MP2_flag=False
CCSD_flag=False
pyscf_output="out.pyscf"
twist_average=False
exp_to_discard=0.0
kpt=[0.0, 0.0, 0.0]
kpt_grid=[1, 1, 1]
smearing_method="fermi"
smearing_sigma=0.0

pyscf_calc=Pyscf_wrapper(
                        structure_file=structure_file,
                        chkfile=pyscf_chkfile,
                        )

pyscf_calc.run_pyscf(
                  omp_num_threads=omp_num_threads,
                  charge=charge,
                  spin=spin,
                  basis=basis,
                  ecp=ecp,
                  scf_method=scf_method,
                  dft_xc=dft_xc,
                  solver_newton=solver_newton,
                  MP2_flag=MP2_flag,
                  CCSD_flag=CCSD_flag,
                  pyscf_output=pyscf_output,
                  twist_average=twist_average,
                  exp_to_discard=exp_to_discard,
                  kpt=kpt,
                  kpt_grid=kpt_grid,
                  smearing_method=smearing_method,
                  smearing_sigma=smearing_sigma
                  )
                #INFO: ******************** input file end ********************


System: uname_result(system='Linux', node='spcc-238', release='5.4.0-66-generic', version='#74-Ubuntu SMP Wed Jan 27 22:54:38 UTC 2021', machine='x86_64', processor='x86_64')  Threads 128
Python 3.7.3 (default, Mar 27 2019, 22:11:17) 
[GCC 7.3.0]
numpy 1.20.1  scipy 1.7.3
Date: Mon Dec 19 18:09:02 2022
PySCF version 2.0.1
PySCF path  /home/nkousuke/application/anaconda3/lib/python3.7/site-packages/pyscf

[CONFIG] conf_file /home/nkousuke/.pyscf_conf.py
[INPUT] verbose = 5
[INPUT] max_memory = 506327.265625 
[INPUT] num. atoms = 2
[INPUT] num. electrons = 2
[INPUT] charge = 0
[INPUT] spin (= nelec alpha-beta = 2S) = 0
[INPUT] symmetry False subgroup None
[INPUT] Mole.unit = A
[INPUT]  1 Na     0.000000000000   0.000000000000   0.000000000000 AA    0.000000000000   0.000000000000   0.000000000000 Bohr
[INPUT]  2 Na     0.000000000000   0.000000000000   3.078900000000 AA    0.000000000000   0.000000000000   5.818277764923 Bohr
[INPUT] ---------------- BASIS SET ---------------- 
[INPUT] l, kappa, [nprim/nctr], expnt,             c_1 c_2 ...
[INPUT] Na
[INPUT] 0    0    [10   /1   ]  22.091548         -6.4e-05
                                9.660603          0.000452
                                4.224568          -0.002616
                                1.847398          0.024309
                                0.807864          -0.099989
                                0.353278          -0.109801
                                0.154488          0.032993
                                0.067557          0.37763
                                0.029543          0.400459
                                0.012919          0.072453
[INPUT] 0    0    [1    /1   ]  0.01612              1
[INPUT] 0    0    [1    /1   ]  0.03289              1
[INPUT] 0    0    [1    /1   ]  0.067106             1
[INPUT] 1    0    [10   /1   ]  9.29421           1.1e-05
                                4.233556          -8.1e-05
                                1.928405          0.000955
                                0.878398          -0.006278
                                0.400114          -0.009165
                                0.182254          0.011214
                                0.083018          0.064076
                                0.037815          0.027336
                                0.017225          0.027603
                                0.007846          -0.005374
[INPUT] 1    0    [1    /1   ]  0.01342              1
[INPUT] 1    0    [1    /1   ]  0.03126              1
[INPUT] 1    0    [1    /1   ]  0.072816             1
[INPUT] 2    0    [1    /1   ]  0.0487               1
[INPUT] 2    0    [1    /1   ]  0.0865               1
[INPUT] 2    0    [1    /1   ]  0.15364              1
[INPUT] 3    0    [1    /1   ]  0.1036               1
[INPUT] 3    0    [1    /1   ]  0.1912               1
[INPUT] 4    0    [1    /1   ]  0.1722               1

nuclear repulsion = 0.171872165682549
number of shells = 28
number of NR pGTOs = 180
number of NR cGTOs = 108
basis = ccecp-ccpvqz
ecp = ccecp
CPU time:         5.39


******** <class 'pyscf.scf.hf.RHF'> ********
method = RHF
initial guess = minao
damping factor = 0
level_shift factor = 0
DIIS = <class 'pyscf.scf.diis.CDIIS'>
diis_start_cycle = 1
diis_space = 8
SCF conv_tol = 1e-09
SCF conv_tol_grad = None
SCF max_cycles = 200
direct_scf = True
direct_scf_tol = 1e-13
chkfile to save SCF result = pyscf.chk
max_memory 506327 MB (current use 106 MB)
Set gradient conv threshold to 3.16228e-05
E1 = -0.6758323348813888  E_coul = 0.22827857385205227
init E= -0.275681595346788
cond(S) = 37101.435099263246
    CPU time for initialize scf     97.64 sec, wall time      1.00 sec
  HOMO = -0.150841633239142  LUMO = -0.0245294840032908
  mo_energy =
[-0.15084163 -0.02452948  0.01544292  0.01544292  0.02587227  0.03136233
  0.03624983  0.03624983  0.04778084  0.06422088  0.06422088  0.08104098
  0.08139435  0.09939883  0.09939883  0.11157873  0.11157873  0.11333552
  0.14342953  0.14342953  0.15308382  0.15308382  0.17036562  0.20322348
  0.20322348  0.2041981   0.21494261  0.23568921  0.23568921  0.24932609
  0.26159007  0.26159007  0.26642736  0.32603125  0.32603125  0.34223133
  0.34223133  0.36103586  0.36103586  0.37889681  0.37889681  0.39177087
  0.39177087  0.39312411  0.39395408  0.42404081  0.42404081  0.45256873
  0.45256873  0.49394896  0.49394896  0.50371031  0.50816385  0.51584526
  0.51584526  0.60738681  0.60738681  0.61916242  0.75582332  0.75582332
  0.75980157  0.77650152  0.77650152  0.80929556  0.80929556  0.83655139
  0.83655139  0.84983879  0.84983879  0.86737857  0.86737857  0.89346753
  0.89616029  0.89616029  0.9214427   0.9214427   0.95831616  1.02065767
  1.02065767  1.02505249  1.02505249  1.02637696  1.02637696  1.06010016
  1.06010016  1.06484867  1.06484867  1.1031625   1.1247431   1.1247431
  1.12700788  1.12700788  1.1446865   1.16265657  1.16265657  1.23439006
  1.23439006  1.23459548  1.3945192   1.3945192   2.34913994  2.34913994
  2.7273972   2.76261082  2.76261082  3.0000577   3.67016096  4.42984537]
E1 = -0.745065607412899  E_coul = 0.20141334237937925
cycle= 1 E= -0.371780099350971  delta_E= -0.0961  |g|= 0.0127  |ddm|= 1.05
    CPU time for cycle= 1     64.46 sec, wall time      0.51 sec
  HOMO = -0.171264120715305  LUMO = -0.000667216981638198
  mo_energy =
[-1.71264121e-01 -6.67216982e-04  1.91595515e-02  1.91595515e-02
  2.47658476e-02  3.44556209e-02  3.62750332e-02  3.62750332e-02
  5.14166407e-02  7.06846714e-02  7.06846714e-02  8.26765791e-02
  8.37326738e-02  1.03310927e-01  1.03310927e-01  1.16087951e-01
  1.18855995e-01  1.18855995e-01  1.45697280e-01  1.45697280e-01
  1.55664806e-01  1.55664806e-01  1.77931307e-01  2.02651912e-01
  2.02651912e-01  2.03142658e-01  2.19232447e-01  2.49451960e-01
  2.49451960e-01  2.52949557e-01  2.69197783e-01  2.69197783e-01
  2.72743967e-01  3.41360317e-01  3.41360317e-01  3.50345411e-01
  3.50345411e-01  3.72815419e-01  3.72815419e-01  3.85850382e-01
  3.85850382e-01  3.96940399e-01  3.96988324e-01  3.96988324e-01
  4.04581587e-01  4.31147140e-01  4.31147140e-01  4.55229423e-01
  4.55229423e-01  4.98505411e-01  4.98505411e-01  5.06931836e-01
  5.13289555e-01  5.21163380e-01  5.21163380e-01  6.14617357e-01
  6.14617357e-01  6.40535143e-01  7.69971134e-01  7.78529041e-01
  7.78529041e-01  7.93456078e-01  7.93456078e-01  8.22724511e-01
  8.22724511e-01  8.53151370e-01  8.53151370e-01  8.58349754e-01
  8.58349754e-01  8.81016546e-01  8.81016546e-01  9.13735976e-01
  9.21141712e-01  9.21141712e-01  9.33270945e-01  9.33270945e-01
  9.69748145e-01  1.03867662e+00  1.03867662e+00  1.03916586e+00
  1.03916586e+00  1.04188614e+00  1.04188614e+00  1.06561436e+00
  1.06561436e+00  1.07446696e+00  1.07446696e+00  1.11803535e+00
  1.12377163e+00  1.12377163e+00  1.13385444e+00  1.13385444e+00
  1.15885819e+00  1.16600010e+00  1.16600010e+00  1.24920594e+00
  1.25062608e+00  1.25062608e+00  1.42489384e+00  1.42489384e+00
  2.36510561e+00  2.36510561e+00  2.74986460e+00  2.78104239e+00
  2.78104239e+00  3.01460805e+00  3.68861402e+00  4.45671018e+00]
E1 = -0.7488617595890678  E_coul = 0.20482085382127546
cycle= 2 E= -0.372168740085243  delta_E= -0.000389  |g|= 0.00426  |ddm|= 0.0421
    CPU time for cycle= 2     69.04 sec, wall time      0.54 sec
  HOMO = -0.168852233638547  LUMO = 0.000685523892798054
  mo_energy =
[-1.68852234e-01  6.85523893e-04  2.02928761e-02  2.02928761e-02
  2.44363346e-02  3.47901838e-02  3.63061988e-02  3.63061988e-02
  5.23057603e-02  7.24308268e-02  7.24308268e-02  8.29325477e-02
  8.39762536e-02  1.04144327e-01  1.04144327e-01  1.16363843e-01
  1.20638188e-01  1.20638188e-01  1.46394201e-01  1.46394201e-01
  1.56378854e-01  1.56378854e-01  1.79428910e-01  2.02735811e-01
  2.02735811e-01  2.03129558e-01  2.20405064e-01  2.52541513e-01
  2.52541513e-01  2.54020121e-01  2.70942773e-01  2.70942773e-01
  2.74017687e-01  3.44645332e-01  3.44645332e-01  3.52362165e-01
  3.52362165e-01  3.75609703e-01  3.75609703e-01  3.87561415e-01
  3.87561415e-01  3.97901498e-01  3.98699516e-01  3.98699516e-01
  4.06959636e-01  4.32998039e-01  4.32998039e-01  4.56127812e-01
  4.56127812e-01  4.99971506e-01  4.99971506e-01  5.07139731e-01
  5.15889030e-01  5.22750085e-01  5.22750085e-01  6.16573124e-01
  6.16573124e-01  6.45288146e-01  7.72506364e-01  7.83368021e-01
  7.83368021e-01  7.97240609e-01  7.97240609e-01  8.25965581e-01
  8.25965581e-01  8.57030786e-01  8.57030786e-01  8.60649452e-01
  8.60649452e-01  8.84400879e-01  8.84400879e-01  9.18296790e-01
  9.26849210e-01  9.26849210e-01  9.36297913e-01  9.36297913e-01
  9.72606722e-01  1.04279745e+00  1.04279745e+00  1.04303246e+00
  1.04303246e+00  1.04511076e+00  1.04511076e+00  1.06756691e+00
  1.06756691e+00  1.07764758e+00  1.07764758e+00  1.12129140e+00
  1.12433663e+00  1.12433663e+00  1.13574139e+00  1.13574139e+00
  1.16262170e+00  1.16748979e+00  1.16748979e+00  1.25319370e+00
  1.25479237e+00  1.25479237e+00  1.43159727e+00  1.43159727e+00
  2.36894662e+00  2.36894662e+00  2.75498500e+00  2.78547215e+00
  2.78547215e+00  3.01830770e+00  3.69317056e+00  4.46269400e+00]
E1 = -0.7504183464536133  E_coul = 0.2063170907028786
cycle= 3 E= -0.372229090068186  delta_E= -6.03e-05  |g|= 0.000697  |ddm|= 0.0282
    CPU time for cycle= 3     39.92 sec, wall time      0.31 sec
  HOMO = -0.168860364197278  LUMO = 0.000684182404671437
  mo_energy =
[-1.68860364e-01  6.84182405e-04  2.02762189e-02  2.02762189e-02
  2.43344046e-02  3.47345624e-02  3.62906159e-02  3.62906159e-02
  5.23762483e-02  7.23890046e-02  7.23890046e-02  8.29397920e-02
  8.38075929e-02  1.04103793e-01  1.04103793e-01  1.16243154e-01
  1.20671367e-01  1.20671367e-01  1.46310478e-01  1.46310478e-01
  1.56383587e-01  1.56383587e-01  1.79413242e-01  2.02698585e-01
  2.02698585e-01  2.03033970e-01  2.20348660e-01  2.52496691e-01
  2.52496691e-01  2.53869910e-01  2.70828087e-01  2.70828087e-01
  2.73902881e-01  3.44622870e-01  3.44622870e-01  3.52213897e-01
  3.52213897e-01  3.75629318e-01  3.75629318e-01  3.87500807e-01
  3.87500807e-01  3.97690280e-01  3.98618850e-01  3.98618850e-01
  4.06787597e-01  4.33000401e-01  4.33000401e-01  4.55977468e-01
  4.55977468e-01  4.99853783e-01  4.99853783e-01  5.06993718e-01
  5.15745981e-01  5.22694899e-01  5.22694899e-01  6.16465680e-01
  6.16465680e-01  6.45127495e-01  7.72242464e-01  7.83119762e-01
  7.83119762e-01  7.97082759e-01  7.97082759e-01  8.25806791e-01
  8.25806791e-01  8.56895210e-01  8.56895210e-01  8.60384057e-01
  8.60384057e-01  8.84348898e-01  8.84348898e-01  9.18024840e-01
  9.26625024e-01  9.26625024e-01  9.36242328e-01  9.36242328e-01
  9.72300890e-01  1.04265496e+00  1.04265496e+00  1.04271093e+00
  1.04271093e+00  1.04498716e+00  1.04498716e+00  1.06736513e+00
  1.06736513e+00  1.07749615e+00  1.07749615e+00  1.12104233e+00
  1.12410626e+00  1.12410626e+00  1.13551114e+00  1.13551114e+00
  1.16230280e+00  1.16729349e+00  1.16729349e+00  1.25287438e+00
  1.25459703e+00  1.25459703e+00  1.43124613e+00  1.43124613e+00
  2.36865128e+00  2.36865128e+00  2.75451378e+00  2.78509946e+00
  2.78509946e+00  3.01784780e+00  3.69273957e+00  4.46222297e+00]
E1 = -0.7504193365608921  E_coul = 0.20631655691324174
cycle= 4 E= -0.372230613965101  delta_E= -1.52e-06  |g|= 7.43e-05  |ddm|= 0.00754
    CPU time for cycle= 4     36.83 sec, wall time      0.29 sec
  HOMO = -0.168905061586159  LUMO = 0.000677001937643929
  mo_energy =
[-1.68905062e-01  6.77001938e-04  2.02672551e-02  2.02672551e-02
  2.43358319e-02  3.47249857e-02  3.62883167e-02  3.62883167e-02
  5.23798397e-02  7.23808261e-02  7.23808261e-02  8.29401682e-02
  8.38106223e-02  1.04095086e-01  1.04095086e-01  1.16229853e-01
  1.20666025e-01  1.20666025e-01  1.46301728e-01  1.46301728e-01
  1.56380291e-01  1.56380291e-01  1.79407448e-01  2.02693363e-01
  2.02693363e-01  2.03024426e-01  2.20342288e-01  2.52485176e-01
  2.52485176e-01  2.53852747e-01  2.70813181e-01  2.70813181e-01
  2.73888822e-01  3.44610988e-01  3.44610988e-01  3.52196391e-01
  3.52196391e-01  3.75619191e-01  3.75619191e-01  3.87489229e-01
  3.87489229e-01  3.97669283e-01  3.98604174e-01  3.98604174e-01
  4.06766891e-01  4.32992173e-01  4.32992173e-01  4.55959707e-01
  4.55959707e-01  4.99836768e-01  4.99836768e-01  5.06977537e-01
  5.15725775e-01  5.22681805e-01  5.22681805e-01  6.16450114e-01
  6.16450114e-01  6.45103184e-01  7.72215755e-01  7.83090254e-01
  7.83090254e-01  7.97061064e-01  7.97061064e-01  8.25786393e-01
  8.25786393e-01  8.56870743e-01  8.56870743e-01  8.60357907e-01
  8.60357907e-01  8.84331678e-01  8.84331678e-01  9.17992290e-01
  9.26592409e-01  9.26592409e-01  9.36225997e-01  9.36225997e-01
  9.72271266e-01  1.04263303e+00  1.04263303e+00  1.04267688e+00
  1.04267688e+00  1.04496498e+00  1.04496498e+00  1.06734179e+00
  1.06734179e+00  1.07747479e+00  1.07747479e+00  1.12101302e+00
  1.12408329e+00  1.12408329e+00  1.13548711e+00  1.13548711e+00
  1.16227071e+00  1.16727124e+00  1.16727124e+00  1.25284255e+00
  1.25456830e+00  1.25456830e+00  1.43120680e+00  1.43120680e+00
  2.36862651e+00  2.36862651e+00  2.75447829e+00  2.78506948e+00
  2.78506948e+00  3.01781512e+00  3.69270472e+00  4.46218600e+00]
E1 = -0.7504034265351438  E_coul = 0.20630063369308105
cycle= 5 E= -0.372230627159514  delta_E= -1.32e-08  |g|= 1.35e-05  |ddm|= 0.0011
    CPU time for cycle= 5     27.06 sec, wall time      0.21 sec
  HOMO = -0.168900166278249  LUMO = 0.000676078673303117
  mo_energy =
[-1.68900166e-01  6.76078673e-04  2.02655250e-02  2.02655250e-02
  2.43331108e-02  3.47240594e-02  3.62878178e-02  3.62878178e-02
  5.23797449e-02  7.23799488e-02  7.23799488e-02  8.29398622e-02
  8.38047498e-02  1.04093321e-01  1.04093321e-01  1.16228156e-01
  1.20664030e-01  1.20664030e-01  1.46299391e-01  1.46299391e-01
  1.56378784e-01  1.56378784e-01  1.79405346e-01  2.02692029e-01
  2.02692029e-01  2.03022389e-01  2.20339613e-01  2.52482566e-01
  2.52482566e-01  2.53849162e-01  2.70810228e-01  2.70810228e-01
  2.73886361e-01  3.44608002e-01  3.44608002e-01  3.52192913e-01
  3.52192913e-01  3.75615938e-01  3.75615938e-01  3.87486123e-01
  3.87486123e-01  3.97665484e-01  3.98600804e-01  3.98600804e-01
  4.06763192e-01  4.32989042e-01  4.32989042e-01  4.55956391e-01
  4.55956391e-01  4.99833391e-01  4.99833391e-01  5.06974540e-01
  5.15722382e-01  5.22678519e-01  5.22678519e-01  6.16446637e-01
  6.16446637e-01  6.45098963e-01  7.72211034e-01  7.83085870e-01
  7.83085870e-01  7.97056280e-01  7.97056280e-01  8.25781523e-01
  8.25781523e-01  8.56866173e-01  8.56866173e-01  8.60353143e-01
  8.60353143e-01  8.84326980e-01  8.84326980e-01  9.17988060e-01
  9.26587702e-01  9.26587702e-01  9.36221275e-01  9.36221275e-01
  9.72266338e-01  1.04262773e+00  1.04262773e+00  1.04267211e+00
  1.04267211e+00  1.04496027e+00  1.04496027e+00  1.06733693e+00
  1.06733693e+00  1.07746952e+00  1.07746952e+00  1.12100866e+00
  1.12407866e+00  1.12407866e+00  1.13548234e+00  1.13548234e+00
  1.16226606e+00  1.16726682e+00  1.16726682e+00  1.25283802e+00
  1.25456345e+00  1.25456345e+00  1.43120193e+00  1.43120193e+00
  2.36862087e+00  2.36862087e+00  2.75447215e+00  2.78506293e+00
  2.78506293e+00  3.01780842e+00  3.69269806e+00  4.46217932e+00]
E1 = -0.7504033212515776  E_coul = 0.20630052790828024
cycle= 6 E= -0.372230627660748  delta_E= -5.01e-10  |g|= 1.42e-06  |ddm|= 0.000312
    CPU time for cycle= 6     39.44 sec, wall time      0.31 sec
  HOMO = -0.16890113271959  LUMO = 0.0006758828417812
  mo_energy =
[-1.68901133e-01  6.75882842e-04  2.02653608e-02  2.02653608e-02
  2.43332528e-02  3.47239667e-02  3.62877616e-02  3.62877616e-02
  5.23797419e-02  7.23798962e-02  7.23798962e-02  8.29398362e-02
  8.38050158e-02  1.04093185e-01  1.04093185e-01  1.16228048e-01
  1.20663935e-01  1.20663935e-01  1.46299295e-01  1.46299295e-01
  1.56378688e-01  1.56378688e-01  1.79405275e-01  2.02691919e-01
  2.02691919e-01  2.03022244e-01  2.20339555e-01  2.52482437e-01
  2.52482437e-01  2.53849000e-01  2.70810061e-01  2.70810061e-01
  2.73886200e-01  3.44607894e-01  3.44607894e-01  3.52192743e-01
  3.52192743e-01  3.75615810e-01  3.75615810e-01  3.87485964e-01
  3.87485964e-01  3.97665258e-01  3.98600619e-01  3.98600619e-01
  4.06763016e-01  4.32988896e-01  4.32988896e-01  4.55956164e-01
  4.55956164e-01  4.99833180e-01  4.99833180e-01  5.06974290e-01
  5.15722192e-01  5.22678333e-01  5.22678333e-01  6.16446449e-01
  6.16446449e-01  6.45098805e-01  7.72210781e-01  7.83085668e-01
  7.83085668e-01  7.97056096e-01  7.97056096e-01  8.25781333e-01
  8.25781333e-01  8.56865965e-01  8.56865965e-01  8.60352878e-01
  8.60352878e-01  8.84326803e-01  8.84326803e-01  9.17987816e-01
  9.26587513e-01  9.26587513e-01  9.36221091e-01  9.36221091e-01
  9.72266063e-01  1.04262753e+00  1.04262753e+00  1.04267186e+00
  1.04267186e+00  1.04496005e+00  1.04496005e+00  1.06733665e+00
  1.06733665e+00  1.07746931e+00  1.07746931e+00  1.12100839e+00
  1.12407833e+00  1.12407833e+00  1.13548206e+00  1.13548206e+00
  1.16226580e+00  1.16726654e+00  1.16726654e+00  1.25283776e+00
  1.25456323e+00  1.25456323e+00  1.43120173e+00  1.43120173e+00
  2.36862069e+00  2.36862069e+00  2.75447191e+00  2.78506271e+00
  2.78506271e+00  3.01780813e+00  3.69269781e+00  4.46217911e+00]
E1 = -0.7504030142174694  E_coul = 0.20630022086841027
Extra cycle  E= -0.37223062766651  delta_E= -5.76e-12  |g|= 5.42e-07  |ddm|= 3.1e-05
    CPU time for scf_cycle    416.36 sec, wall time      3.50 sec
    CPU time for SCF    416.36 sec, wall time      3.50 sec
converged SCF energy = -0.37223062766651
