#INFO: **** input file is /home/nkousuke/lustre/toBeSync/turboRVB/05turbo-genius-development/turbogenius_paper/04data/sanity_checks/03pyscf_HF_turbo_VMC_via_trexio/00open_boundary/results/C2H2/pyscf-HF-workflow/run.py ****

from pyscf_wrapper import Pyscf_wrapper

# input variables
pyscf_chkfile="pyscf.chk"
structure_file="C2H2.xyz"

# input variables
omp_num_threads=128
charge=0
spin=0
basis="ccecp-ccpvqz"
ecp="ccecp"
scf_method="HF"
dft_xc="NA"
solver_newton=False
MP2_flag=False
CCSD_flag=False
pyscf_output="out.pyscf"
twist_average=False
exp_to_discard=0.0
kpt=[0.0, 0.0, 0.0]
kpt_grid=[1, 1, 1]
smearing_method="fermi"
smearing_sigma=0.0

pyscf_calc=Pyscf_wrapper(
                        structure_file=structure_file,
                        chkfile=pyscf_chkfile,
                        )

pyscf_calc.run_pyscf(
                  omp_num_threads=omp_num_threads,
                  charge=charge,
                  spin=spin,
                  basis=basis,
                  ecp=ecp,
                  scf_method=scf_method,
                  dft_xc=dft_xc,
                  solver_newton=solver_newton,
                  MP2_flag=MP2_flag,
                  CCSD_flag=CCSD_flag,
                  pyscf_output=pyscf_output,
                  twist_average=twist_average,
                  exp_to_discard=exp_to_discard,
                  kpt=kpt,
                  kpt_grid=kpt_grid,
                  smearing_method=smearing_method,
                  smearing_sigma=smearing_sigma
                  )
                #INFO: ******************** input file end ********************


System: uname_result(system='Linux', node='spcc-238', release='5.4.0-66-generic', version='#74-Ubuntu SMP Wed Jan 27 22:54:38 UTC 2021', machine='x86_64', processor='x86_64')  Threads 128
Python 3.7.3 (default, Mar 27 2019, 22:11:17) 
[GCC 7.3.0]
numpy 1.20.1  scipy 1.7.3
Date: Mon Dec 19 18:10:26 2022
PySCF version 2.0.1
PySCF path  /home/nkousuke/application/anaconda3/lib/python3.7/site-packages/pyscf

[CONFIG] conf_file /home/nkousuke/.pyscf_conf.py
[INPUT] verbose = 5
[INPUT] max_memory = 506273.765625 
[INPUT] num. atoms = 4
[INPUT] num. electrons = 10
[INPUT] charge = 0
[INPUT] spin (= nelec alpha-beta = 2S) = 0
[INPUT] symmetry False subgroup None
[INPUT] Mole.unit = A
[INPUT]  1 C      0.000000000000   0.000000000000   0.601200000000 AA    0.000000000000   0.000000000000   1.136103346089 Bohr
[INPUT]  2 C      0.000000000000   0.000000000000  -0.601200000000 AA    0.000000000000   0.000000000000  -1.136103346089 Bohr
[INPUT]  3 H      0.000000000000   0.000000000000  -1.663700000000 AA    0.000000000000   0.000000000000  -3.143937353439 Bohr
[INPUT]  4 H      0.000000000000   0.000000000000   1.663700000000 AA    0.000000000000   0.000000000000   3.143937353439 Bohr
[INPUT] ---------------- BASIS SET ---------------- 
[INPUT] l, kappa, [nprim/nctr], expnt,             c_1 c_2 ...
[INPUT] H
[INPUT] 0    0    [8    /1   ]  23.843185         0.0041149
                                10.212443         0.0104644
                                4.374164          0.0280111
                                1.873529          0.0758862
                                0.802465          0.1821062
                                0.343709          0.3485214
                                0.147217          0.3782313
                                0.063055          0.1164241
[INPUT] 0    0    [1    /1   ]  0.081856             1
[INPUT] 0    0    [1    /1   ]  0.233254             1
[INPUT] 0    0    [1    /1   ]  0.664673             1
[INPUT] 1    0    [1    /1   ]  0.284469             1
[INPUT] 1    0    [1    /1   ]  0.847159             1
[INPUT] 1    0    [1    /1   ]  2.522868             1
[INPUT] 2    0    [1    /1   ]  0.665279             1
[INPUT] 2    0    [1    /1   ]  2.048739             1
[INPUT] 3    0    [1    /1   ]  1.42146              1
[INPUT] C
[INPUT] 0    0    [9    /1   ]  13.073594         0.0051583
                                6.541187          0.0603424
                                4.573411          -0.1978471
                                1.637494          -0.081034
                                0.819297          0.2321726
                                0.409924          0.2914643
                                0.2313            0.4336405
                                0.102619          0.213194
                                0.051344          0.0049848
[INPUT] 0    0    [1    /1   ]  0.846879             1
[INPUT] 0    0    [1    /1   ]  0.269659             1
[INPUT] 0    0    [1    /1   ]  0.109576             1
[INPUT] 1    0    [9    /1   ]  9.934169          0.0209076
                                3.886955          0.0572698
                                1.871016          0.1122682
                                0.935757          0.2130082
                                0.468003          0.2835815
                                0.239473          0.3011207
                                0.117063          0.2016934
                                0.058547          0.0453575
                                0.029281          0.0029775
[INPUT] 1    0    [1    /1   ]  0.804681             1
[INPUT] 1    0    [1    /1   ]  0.313254             1
[INPUT] 1    0    [1    /1   ]  0.105389             1
[INPUT] 2    0    [1    /1   ]  2.01376              1
[INPUT] 2    0    [1    /1   ]  0.684884             1
[INPUT] 2    0    [1    /1   ]  0.240171             1
[INPUT] 3    0    [1    /1   ]  0.457302             1
[INPUT] 3    0    [1    /1   ]  1.32493              1
[INPUT] 4    0    [1    /1   ]  1.03418              1

nuclear repulsion = 13.0541833894748
number of shells = 48
number of NR pGTOs = 246
number of NR cGTOs = 168
basis = ccecp-ccpvqz
ecp = ccecp
CPU time:         5.42


******** <class 'pyscf.scf.hf.RHF'> ********
method = RHF
initial guess = minao
damping factor = 0
level_shift factor = 0
DIIS = <class 'pyscf.scf.diis.CDIIS'>
diis_start_cycle = 1
diis_space = 8
SCF conv_tol = 1e-09
SCF conv_tol_grad = None
SCF max_cycles = 200
direct_scf = True
direct_scf_tol = 1e-13
chkfile to save SCF result = pyscf.chk
max_memory 506273 MB (current use 106 MB)
Set gradient conv threshold to 3.16228e-05
E1 = -42.27254733991942  E_coul = 17.468986209796736
init E= -11.7493777406479
cond(S) = 256159.85561523412
    CPU time for initialize scf    202.26 sec, wall time      1.80 sec
  HOMO = -0.361484805206912  LUMO = 0.0573766741761829
  mo_energy =
[-1.43784455 -0.83518311 -0.59854067 -0.36148481 -0.36148481  0.05737667
  0.05737667  0.09703364  0.12256108  0.20455408  0.26039705  0.31034689
  0.31034689  0.38099553  0.38808599  0.38808599  0.42701355  0.55734205
  0.55734205  0.61445242  0.61445242  0.62643572  0.6446455   0.78604125
  0.8128638   0.8128638   0.81546149  0.81546149  0.89166149  1.0802382
  1.12773698  1.12773698  1.13112263  1.13112263  1.13806829  1.303311
  1.49040459  1.49437793  1.49437793  1.63794959  1.63794959  1.70694428
  1.73186874  1.73186874  1.87557449  1.87557449  1.96313157  1.97495036
  1.97495036  2.00644222  2.00644222  2.0122834   2.0122834   2.06350157
  2.06350157  2.10438853  2.10438853  2.22948344  2.29372143  2.29372143
  2.35499544  2.35499544  2.36171074  2.41426411  2.5944433   2.69495336
  2.69495336  2.7240596   2.7240596   2.89261918  3.02015141  3.02015141
  3.21117288  3.21117288  3.38247514  3.64815634  3.72773566  3.72773566
  3.89346105  3.95958877  3.95958877  4.28406125  4.28406125  4.38088607
  4.51672234  4.56557564  4.73215217  4.73215217  4.98993892  4.98993892
  5.17511513  5.17511513  5.37027989  5.37027989  5.41752663  5.42636474
  5.42636474  5.59572227  5.59572227  5.67359325  5.67359325  5.70423232
  5.70423232  5.7298356   5.7298356   5.7299616   5.7299616   5.88425046
  5.88425046  5.89860738  5.89860738  5.91749479  5.91749479  5.99020092
  6.2401086   6.2401086   6.27799978  6.42660154  6.42660154  6.63065754
  6.63065754  6.76102067  6.76102067  6.81798186  6.81798186  7.06521389
  7.12385436  7.16613597  7.16613597  7.55187555  7.55187555  7.68852343
  7.76032479  7.81044419  7.95389501  7.95389501  7.99159899  7.99159899
  8.0317757   8.0317757   8.17227965  8.26303157  8.26303157  8.27872935
  8.27872935  8.39892528  8.39892528  8.67876588  9.15991542  9.15991542
  9.27461491  9.33463648  9.33463648  9.48846587  9.72846002  9.72846002
 10.29933808 10.29933808 10.98873751 11.72264965 11.72264965 11.86590608
 12.01274193 12.01274193 12.80707801 14.0967525  19.55822043 20.74476473]
E1 = -43.876673330471284  E_coul = 18.732878779886633
cycle= 1 E= -12.0896111611098  delta_E= -0.34  |g|= 0.286  |ddm|= 4.12
    CPU time for cycle= 1     26.32 sec, wall time      0.23 sec
  HOMO = -0.389003798616962  LUMO = 0.109755868757056
  mo_energy =
[-1.01002039 -0.76885249 -0.66032186 -0.3890038  -0.3890038   0.10975587
  0.12318519  0.16909966  0.16909966  0.24731296  0.33081743  0.35302331
  0.35302331  0.39225612  0.45933619  0.45933619  0.46452637  0.61581623
  0.61581623  0.62559448  0.62559448  0.65079468  0.68867747  0.81576852
  0.81576852  0.83938072  0.85992885  0.85992885  0.91922164  1.09585804
  1.15756053  1.17469408  1.17469408  1.17982509  1.17982509  1.42716587
  1.52994554  1.61025077  1.61025077  1.72449991  1.72449991  1.73946474
  1.81508937  1.81508937  1.90193904  1.90193904  2.03419217  2.03419217
  2.06736098  2.08115169  2.08115169  2.09465688  2.09465688  2.14124699
  2.14124699  2.14665776  2.14665776  2.28955861  2.36670749  2.36670749
  2.41307837  2.43218864  2.43218864  2.52188713  2.61096793  2.71507687
  2.71507687  2.75255839  2.75255839  2.88961297  3.03903565  3.03903565
  3.2628495   3.2628495   3.43010921  3.69746129  3.77068102  3.77068102
  3.95724002  4.03745025  4.03745025  4.34405884  4.34405884  4.42976307
  4.69962307  4.70132773  4.87575175  4.87575175  5.11705732  5.11705732
  5.39641896  5.39641896  5.48946574  5.48946574  5.63074737  5.64833554
  5.64833554  5.73121934  5.73121934  5.77303757  5.77303757  5.80742626
  5.80742626  5.81178991  5.81178991  5.84602874  5.84602874  5.98755629
  5.98755629  6.03571576  6.03571576  6.06638739  6.06638739  6.09505125
  6.36242261  6.36242261  6.38552883  6.43145127  6.43145127  6.79837676
  6.79837676  6.87541974  6.87541974  6.95840427  6.95840427  7.16468293
  7.24084302  7.26687329  7.26687329  7.69025061  7.69306743  7.69306743
  7.77601241  7.9216529   7.9216529   7.983585    7.99797278  7.99797278
  8.04893363  8.04893363  8.17881424  8.2485823   8.2485823   8.4220264
  8.4220264   8.42665731  8.42665731  8.69897343  9.23728291  9.23728291
  9.40055473  9.42473733  9.42473733  9.5894928   9.73195529  9.73195529
 10.38451331 10.38451331 11.05015304 11.81512773 11.81512773 11.97912753
 12.09702253 12.09702253 12.93134961 14.2421068  19.78697293 20.99298966]
E1 = -43.61554097263087  E_coul = 18.447474661549812
cycle= 2 E= -12.1138829216062  delta_E= -0.0243  |g|= 0.0739  |ddm|= 0.555
    CPU time for cycle= 2     91.78 sec, wall time      0.74 sec
  HOMO = -0.421343366196944  LUMO = 0.112850091385244
  mo_energy =
[-1.05374584 -0.77674062 -0.68697237 -0.42134337 -0.42134337  0.11285009
  0.12490184  0.15814701  0.15814701  0.23791704  0.33139058  0.34184866
  0.34184866  0.39186232  0.44487747  0.44487747  0.46293795  0.59671266
  0.59671266  0.62754388  0.62754388  0.65189991  0.68434223  0.81928559
  0.81928559  0.82538913  0.84959386  0.84959386  0.91453114  1.09603902
  1.15674025  1.16513021  1.16513021  1.16662629  1.16662629  1.39907389
  1.52982939  1.57736377  1.57736377  1.69936485  1.69936485  1.74112174
  1.79634147  1.79634147  1.90264694  1.90264694  2.02735146  2.02735146
  2.03998967  2.06150759  2.06150759  2.07057928  2.07057928  2.12432744
  2.12432744  2.13806221  2.13806221  2.27942088  2.35143449  2.35143449
  2.40629722  2.41237644  2.41237644  2.49506326  2.61539145  2.71462612
  2.71462612  2.7487144   2.7487144   2.89504682  3.03923668  3.03923668
  3.24989524  3.24989524  3.42341361  3.69721194  3.77072768  3.77072768
  3.95435892  4.02343807  4.02343807  4.33819254  4.33819254  4.42381313
  4.65447015  4.67079998  4.8404728   4.8404728   5.07699725  5.07699725
  5.33885161  5.33885161  5.45091955  5.45091955  5.58089088  5.59387711
  5.59387711  5.72193174  5.72193174  5.72573798  5.72573798  5.79916731
  5.79916731  5.80094661  5.80094661  5.8015588   5.8015588   5.97402275
  5.97402275  6.00037028  6.00037028  6.02018721  6.02018721  6.07521703
  6.3359119   6.3359119   6.36866295  6.44547814  6.44547814  6.74716949
  6.74716949  6.86729892  6.86729892  6.89960215  6.89960215  7.15785621
  7.21641728  7.24875507  7.24875507  7.66845886  7.66845886  7.7161953
  7.79135618  7.94623563  7.94623563  7.94660696  8.00075376  8.00075376
  8.05623251  8.05623251  8.19175673  8.27102742  8.27102742  8.39835609
  8.39835609  8.44063992  8.44063992  8.70940023  9.24327316  9.24327316
  9.38255713  9.41294451  9.41294451  9.58642377  9.76153167  9.76153167
 10.37833058 10.37833058 11.06503413 11.80794261 11.80794261 11.9730851
 12.0937377  12.0937377  12.91769648 14.22550135 19.72458719 20.92376805]
E1 = -43.74333012968123  E_coul = 18.573448015624116
cycle= 3 E= -12.1156987245823  delta_E= -0.00182  |g|= 0.0239  |ddm|= 0.173
    CPU time for cycle= 3     59.91 sec, wall time      0.47 sec
  HOMO = -0.410102706434525  LUMO = 0.113641718001628
  mo_energy =
[-1.03802138 -0.76953736 -0.68058586 -0.41010271 -0.41010271  0.11364172
  0.12538436  0.16464017  0.16464017  0.24074786  0.33610634  0.34536757
  0.34536757  0.3933963   0.45093594  0.45093594  0.46587885  0.60165907
  0.60165907  0.63033497  0.63033497  0.65405659  0.6888383   0.82114767
  0.82114767  0.82987641  0.85294276  0.85294276  0.91717546  1.09850984
  1.16005171  1.16924853  1.16924853  1.1716081   1.1716081   1.40881408
  1.53454052  1.58724054  1.58724054  1.70559701  1.70559701  1.74632533
  1.80347908  1.80347908  1.90715781  1.90715781  2.03396807  2.03396807
  2.04847553  2.06652007  2.06652007  2.0789311   2.0789311   2.13158904
  2.13158904  2.14254204  2.14254204  2.28635792  2.35949046  2.35949046
  2.41191474  2.42000577  2.42000577  2.50475604  2.62000221  2.7195789
  2.7195789   2.75309685  2.75309685  2.89779352  3.04390096  3.04390096
  3.25520934  3.25520934  3.43018471  3.70497492  3.77710313  3.77710313
  3.96299941  4.03219645  4.03219645  4.34539688  4.34539688  4.43004253
  4.67038815  4.68358925  4.85243691  4.85243691  5.08701544  5.08701544
  5.35661487  5.35661487  5.46041369  5.46041369  5.59913239  5.61250082
  5.61250082  5.73310437  5.73310437  5.73881453  5.73881453  5.80850431
  5.80850431  5.81058275  5.81058275  5.8140779   5.8140779   5.98595433
  5.98595433  6.01399079  6.01399079  6.03304733  6.03304733  6.08688326
  6.34896126  6.34896126  6.38080377  6.45051717  6.45051717  6.7629826
  6.7629826   6.87492286  6.87492286  6.91693255  6.91693255  7.17093078
  7.22900311  7.25992944  7.25992944  7.68279453  7.68279453  7.72336893
  7.79895497  7.95030394  7.95030394  7.9625751   8.00726769  8.00726769
  8.06251854  8.06251854  8.19846795  8.276185    8.276185    8.41407143
  8.41407143  8.44836541  8.44836541  8.71667199  9.25481837  9.25481837
  9.39715753  9.42353679  9.42353679  9.59989154  9.76862966  9.76862966
 10.39028725 10.39028725 11.07666187 11.82017277 11.82017277 11.98818375
 12.10512035 12.10512035 12.93215685 14.24293054 19.74730525 20.94774485]
E1 = -43.7102153136138  E_coul = 18.54014580693585
cycle= 4 E= -12.1158861172031  delta_E= -0.000187  |g|= 0.00226  |ddm|= 0.0512
    CPU time for cycle= 4     80.65 sec, wall time      0.64 sec
  HOMO = -0.410932437912728  LUMO = 0.113440393995738
  mo_energy =
[-1.03913198 -0.77067484 -0.68219742 -0.41093244 -0.41093244  0.11344039
  0.12514517  0.16405517  0.16405517  0.24048739  0.33554675  0.34523969
  0.34523969  0.39311613  0.45038223  0.45038223  0.46522157  0.60131271
  0.60131271  0.62978185  0.62978185  0.65369348  0.68824409  0.82070253
  0.82070253  0.82945581  0.8526447   0.8526447   0.91664756  1.0980371
  1.15931602  1.16875941  1.16875941  1.17100183  1.17100183  1.40774058
  1.53383177  1.5864582   1.5864582   1.70524165  1.70524165  1.74528184
  1.8028007   1.8028007   1.90626156  1.90626156  2.0329937   2.0329937
  2.04779499  2.06608564  2.06608564  2.0780996   2.0780996   2.13086123
  2.13086123  2.14176736  2.14176736  2.28526409  2.35848528  2.35848528
  2.41092553  2.41903133  2.41903133  2.50379675  2.61903451  2.71863123
  2.71863123  2.75236018  2.75236018  2.89717595  3.04303788  3.04303788
  3.25454945  3.25454945  3.4291169   3.70362562  3.77600883  3.77600883
  3.96168675  4.03091773  4.03091773  4.34441789  4.34441789  4.42914616
  4.66892435  4.68222262  4.85135466  4.85135466  5.08608413  5.08608413
  5.35536976  5.35536976  5.45943143  5.45943143  5.5976594   5.61107503
  5.61107503  5.73184504  5.73184504  5.73690995  5.73690995  5.80698758
  5.80698758  5.80891148  5.80891148  5.81264626  5.81264626  5.98410245
  5.98410245  6.01222828  6.01222828  6.03159959  6.03159959  6.08505027
  6.3472495   6.3472495   6.37902538  6.44932736  6.44932736  6.76105998
  6.76105998  6.87378052  6.87378052  6.91515783  6.91515783  7.16905094
  7.22730094  7.25834373  7.25834373  7.68108342  7.68108342  7.7218754
  7.79753394  7.9492103   7.9492103   7.96096038  8.00604746  8.00604746
  8.0613102   8.0613102   8.19714312  8.2749914   8.2749914   8.41207148
  8.41207148  8.44678553  8.44678553  8.7154187   9.25308113  9.25308113
  9.39528991  9.4220431   9.4220431   9.59799103  9.76704865  9.76704865
 10.38851048 10.38851048 11.07467994 11.8183887  11.8183887  11.98611072
 12.10343649 12.10343649 12.93025326 14.2407179  19.74461275 20.94504209]
E1 = -43.712232028231696  E_coul = 18.542160456535125
cycle= 5 E= -12.1158881822218  delta_E= -2.07e-06  |g|= 0.00039  |ddm|= 0.00619
    CPU time for cycle= 5     63.44 sec, wall time      0.50 sec
  HOMO = -0.41088993998529  LUMO = 0.113412893765513
  mo_energy =
[-1.03913138 -0.77070499 -0.68227077 -0.41088994 -0.41088994  0.11341289
  0.12511155  0.16406757  0.16406757  0.24047692  0.33553509  0.34527594
  0.34527594  0.39309861  0.45040157  0.45040157  0.46517578  0.60131622
  0.60131622  0.62975042  0.62975042  0.65367693  0.68822871  0.82066355
  0.82066355  0.82944873  0.85265573  0.85265573  0.91662012  1.09800568
  1.15927221  1.16874681  1.16874681  1.17099889  1.17099889  1.40771865
  1.53380143  1.58647812  1.58647812  1.70525317  1.70525317  1.74523321
  1.80278038  1.80278038  1.90623021  1.90623021  2.03298126  2.03298126
  2.04776968  2.06610073  2.06610073  2.07810908  2.07810908  2.13087068
  2.13087068  2.14175849  2.14175849  2.28525606  2.35844416  2.35844416
  2.41092475  2.41900762  2.41900762  2.50376734  2.6189786   2.71856699
  2.71856699  2.75231721  2.75231721  2.89710835  3.0429761   3.0429761
  3.25451508  3.25451508  3.4290681   3.70359158  3.77595786  3.77595786
  3.96165769  4.03090744  4.03090744  4.34437686  4.34437686  4.42911351
  4.66891214  4.6821995   4.85133127  4.85133127  5.08608269  5.08608269
  5.35533266  5.35533266  5.4594343   5.4594343   5.59763106  5.61102903
  5.61102903  5.73182192  5.73182192  5.73694806  5.73694806  5.80699231
  5.80699231  5.80895406  5.80895406  5.81265467  5.81265467  5.98415691
  5.98415691  6.01226225  6.01226225  6.03159745  6.03159745  6.08510312
  6.34726001  6.34726001  6.37904397  6.44924207  6.44924207  6.76109173
  6.76109173  6.87371985  6.87371985  6.91515703  6.91515703  7.16902493
  7.22731055  7.25831873  7.25831873  7.68104566  7.68104566  7.72176205
  7.79742897  7.94907176  7.94907176  7.96093846  8.00596317  8.00596317
  8.06121288  8.06121288  8.19705858  8.27486529  8.27486529  8.41207338
  8.41207338  8.44671216  8.44671216  8.71532051  9.25301197  9.25301197
  9.39528262  9.42199597  9.42199597  9.59795834  9.76695768  9.76695768
 10.38846568 10.38846568 11.07464038 11.81834974 11.81834974 11.98608617
 12.10339063 12.10339063 12.93025706 14.24071696 19.74468646 20.94511008]
E1 = -43.71207798407092  E_coul = 18.54200631220905
cycle= 6 E= -12.1158882823871  delta_E= -1e-07  |g|= 8.75e-05  |ddm|= 0.00136
    CPU time for cycle= 6     74.99 sec, wall time      0.60 sec
  HOMO = -0.410904318048298  LUMO = 0.113407045926412
  mo_energy =
[-1.03916677 -0.77073177 -0.68230477 -0.41090432 -0.41090432  0.11340705
  0.12510466  0.16405399  0.16405399  0.2404676   0.33552684  0.3452749
  0.3452749   0.39309188  0.45039062  0.45039062  0.4651625   0.60130294
  0.60130294  0.62974174  0.62974174  0.65367096  0.68821815  0.82065574
  0.82065574  0.82943631  0.85264789  0.85264789  0.91660885  1.09799545
  1.15925719  1.16873445  1.16873445  1.17098652  1.17098652  1.40769499
  1.53378844  1.58645774  1.58645774  1.70523768  1.70523768  1.74521576
  1.8027627   1.8027627   1.90621739  1.90621739  2.03296553  2.03296553
  2.04774767  2.06608792  2.06608792  2.0780901   2.0780901   2.13085216
  2.13085216  2.14174703  2.14174703  2.28523779  2.35842089  2.35842089
  2.41091003  2.41898495  2.41898495  2.50374299  2.61896168  2.71854798
  2.71854798  2.75230109  2.75230109  2.89709383  3.04295841  3.04295841
  3.25449742  3.25449742  3.42904654  3.70357186  3.77593905  3.77593905
  3.96163679  4.03088732  4.03088732  4.3443584   4.3443584   4.42909527
  4.66887631  4.68216993  4.85130195  4.85130195  5.08605343  5.08605343
  5.35529389  5.35529389  5.45940564  5.45940564  5.5975961   5.61099069
  5.61099069  5.73180255  5.73180255  5.73690623  5.73690623  5.80697215
  5.80697215  5.80893555  5.80893555  5.81261951  5.81261951  5.98413623
  5.98413623  6.01222873  6.01222873  6.03156033  6.03156033  6.08507903
  6.34722924  6.34722924  6.37901867  6.44922495  6.44922495  6.76104986
  6.76104986  6.87369662  6.87369662  6.91511204  6.91511204  7.16899752
  7.22727988  7.25829008  7.25829008  7.68101198  7.68101198  7.72174369
  7.79740711  7.94905182  7.94905182  7.96090429  8.00593951  8.00593951
  8.06118995  8.06118995  8.19703928  8.27484637  8.27484637  8.41204007
  8.41204007  8.44669527  8.44669527  8.71529876  9.25298986  9.25298986
  9.39525544  9.42197014  9.42197014  9.59793308  9.76694299  9.76694299
 10.3884388  10.3884388  11.07462092 11.81832327 11.81832327 11.98605915
 12.10336755 12.10336755 12.93023208 14.24068678 19.74463228 20.94505355]
E1 = -43.71213162207421  E_coul = 18.542059945889672
cycle= 7 E= -12.1158882867097  delta_E= -4.32e-09  |g|= 7.22e-06  |ddm|= 0.000347
    CPU time for cycle= 7     95.18 sec, wall time      0.77 sec
  HOMO = -0.410902592818124  LUMO = 0.113406909921143
  mo_energy =
[-1.03916606 -0.77073094 -0.68230418 -0.41090259 -0.41090259  0.11340691
  0.12510452  0.16405422  0.16405422  0.24046764  0.33552702  0.34527536
  0.34527536  0.39309197  0.45039125  0.45039125  0.46516251  0.60130348
  0.60130348  0.62974187  0.62974187  0.65367096  0.68821818  0.8206558
  0.8206558   0.82943637  0.85264832  0.85264832  0.91660892  1.09799557
  1.15925722  1.16873475  1.16873475  1.17098721  1.17098721  1.40769534
  1.53378835  1.58645875  1.58645875  1.70523832  1.70523832  1.74521549
  1.80276336  1.80276336  1.90621761  1.90621761  2.03296594  2.03296594
  2.04774823  2.06608869  2.06608869  2.07809088  2.07809088  2.13085289
  2.13085289  2.14174754  2.14174754  2.2852382   2.35842109  2.35842109
  2.41091078  2.41898571  2.41898571  2.50374341  2.61896152  2.71854792
  2.71854792  2.75230132  2.75230132  2.89709343  3.04295833  3.04295833
  3.25449789  3.25449789  3.42904655  3.70357194  3.77593904  3.77593904
  3.96163679  4.03088814  4.03088814  4.34435851  4.34435851  4.4290953
  4.6688773   4.68217055  4.85130294  4.85130294  5.08605454  5.08605454
  5.35529516  5.35529516  5.45940682  5.45940682  5.59759737  5.61099194
  5.61099194  5.73180312  5.73180312  5.73690783  5.73690783  5.80697283
  5.80697283  5.80893664  5.80893664  5.81262085  5.81262085  5.98413724
  5.98413724  6.01223003  6.01223003  6.03156168  6.03156168  6.08508031
  6.34723007  6.34723007  6.37901944  6.44922468  6.44922468  6.76105148
  6.76105148  6.87369687  6.87369687  6.91511362  6.91511362  7.16899754
  7.22728063  7.2582907   7.2582907   7.68101259  7.68101259  7.72174223
  7.79740604  7.94905037  7.94905037  7.96090524  8.00593898  8.00593898
  8.06118947  8.06118947  8.19703861  8.27484525  8.27484525  8.41204096
  8.41204096  8.44669465  8.44669465  8.71529782  9.25298938  9.25298938
  9.39525602  9.42197047  9.42197047  9.59793284  9.76694173  9.76694173
 10.3884388  10.3884388  11.07462014 11.81832332 11.81832332 11.98605903
 12.10336757 12.10336757 12.93023249 14.24068708 19.74463422 20.94505568]
E1 = -43.712129929309214  E_coul = 18.5420582530954
cycle= 8 E= -12.115888286739  delta_E= -2.93e-11  |g|= 9.3e-07  |ddm|= 3.99e-05
    CPU time for cycle= 8     72.21 sec, wall time      0.57 sec
  HOMO = -0.410902588788905  LUMO = 0.113406906818826
  mo_energy =
[-1.03916612 -0.77073107 -0.68230435 -0.41090259 -0.41090259  0.11340691
  0.12510452  0.16405415  0.16405415  0.24046761  0.33552704  0.34527536
  0.34527536  0.39309197  0.45039123  0.45039123  0.46516247  0.60130345
  0.60130345  0.62974183  0.62974183  0.65367094  0.68821819  0.82065577
  0.82065577  0.82943634  0.8526483   0.8526483   0.91660889  1.09799555
  1.15925718  1.16873472  1.16873472  1.1709872   1.1709872   1.40769533
  1.53378829  1.58645874  1.58645874  1.70523829  1.70523829  1.74521541
  1.80276333  1.80276333  1.90621755  1.90621755  2.03296587  2.03296587
  2.04774821  2.06608866  2.06608866  2.07809083  2.07809083  2.13085285
  2.13085285  2.14174748  2.14174748  2.28523813  2.35842102  2.35842102
  2.41091073  2.41898565  2.41898565  2.50374339  2.61896144  2.71854785
  2.71854785  2.75230126  2.75230126  2.89709335  3.04295826  3.04295826
  3.25449785  3.25449785  3.42904646  3.70357184  3.77593895  3.77593895
  3.96163667  4.03088808  4.03088808  4.34435843  4.34435843  4.4290952
  4.66887729  4.68217051  4.8513029   4.8513029   5.08605449  5.08605449
  5.3552952   5.3552952   5.45940676  5.45940676  5.59759743  5.610992
  5.610992    5.73180302  5.73180302  5.73690779  5.73690779  5.80697271
  5.80697271  5.80893652  5.80893652  5.81262079  5.81262079  5.9841371
  5.9841371   6.01222995  6.01222995  6.03156161  6.03156161  6.0850802
  6.34722997  6.34722997  6.3790193   6.44922456  6.44922456  6.76105142
  6.76105142  6.87369678  6.87369678  6.91511361  6.91511361  7.1689974
  7.22728052  7.25829059  7.25829059  7.68101253  7.68101253  7.721742
  7.79740586  7.94905019  7.94905019  7.96090521  8.00593885  8.00593885
  8.06118934  8.06118934  8.19703846  8.27484508  8.27484508  8.41204087
  8.41204087  8.44669445  8.44669445  8.71529768  9.25298921  9.25298921
  9.39525593  9.42197035  9.42197035  9.59793267  9.76694149  9.76694149
 10.38843865 10.38843865 11.0746199  11.81832317 11.81832317 11.98605888
 12.10336743 12.10336743 12.93023237 14.24068696 19.74463417 20.94505567]
E1 = -43.712129685256095  E_coul = 18.542058009041853
Extra cycle  E= -12.1158882867394  delta_E= -4.3e-13  |g|= 2.92e-07  |ddm|= 3.85e-06
    CPU time for scf_cycle    837.79 sec, wall time      6.87 sec
    CPU time for SCF    837.79 sec, wall time      6.87 sec
converged SCF energy = -12.1158882867394
