#INFO: **** input file is /home/nkousuke/lustre/toBeSync/turboRVB/05turbo-genius-development/turbogenius_paper/04data/sanity_checks/03pyscf_HF_turbo_VMC_via_trexio/00open_boundary/results/CH/pyscf-HF-workflow/run.py ****

from pyscf_wrapper import Pyscf_wrapper

# input variables
pyscf_chkfile="pyscf.chk"
structure_file="CH.xyz"

# input variables
omp_num_threads=128
charge=0
spin=1
basis="ccecp-ccpvqz"
ecp="ccecp"
scf_method="HF"
dft_xc="NA"
solver_newton=False
MP2_flag=False
CCSD_flag=False
pyscf_output="out.pyscf"
twist_average=False
exp_to_discard=0.0
kpt=[0.0, 0.0, 0.0]
kpt_grid=[1, 1, 1]
smearing_method="fermi"
smearing_sigma=0.0

pyscf_calc=Pyscf_wrapper(
                        structure_file=structure_file,
                        chkfile=pyscf_chkfile,
                        )

pyscf_calc.run_pyscf(
                  omp_num_threads=omp_num_threads,
                  charge=charge,
                  spin=spin,
                  basis=basis,
                  ecp=ecp,
                  scf_method=scf_method,
                  dft_xc=dft_xc,
                  solver_newton=solver_newton,
                  MP2_flag=MP2_flag,
                  CCSD_flag=CCSD_flag,
                  pyscf_output=pyscf_output,
                  twist_average=twist_average,
                  exp_to_discard=exp_to_discard,
                  kpt=kpt,
                  kpt_grid=kpt_grid,
                  smearing_method=smearing_method,
                  smearing_sigma=smearing_sigma
                  )
                #INFO: ******************** input file end ********************


System: uname_result(system='Linux', node='spcc-238', release='5.4.0-66-generic', version='#74-Ubuntu SMP Wed Jan 27 22:54:38 UTC 2021', machine='x86_64', processor='x86_64')  Threads 128
Python 3.7.3 (default, Mar 27 2019, 22:11:17) 
[GCC 7.3.0]
numpy 1.20.1  scipy 1.7.3
Date: Mon Dec 19 18:08:50 2022
PySCF version 2.0.1
PySCF path  /home/nkousuke/application/anaconda3/lib/python3.7/site-packages/pyscf

[CONFIG] conf_file /home/nkousuke/.pyscf_conf.py
[INPUT] verbose = 5
[INPUT] max_memory = 506292.69140625 
[INPUT] num. atoms = 2
[INPUT] num. electrons = 5
[INPUT] charge = 0
[INPUT] spin (= nelec alpha-beta = 2S) = 1
[INPUT] symmetry False subgroup None
[INPUT] Mole.unit = A
[INPUT]  1 C      0.000000000000   0.000000000000   0.159700000000 AA    0.000000000000   0.000000000000   0.301789262093 Bohr
[INPUT]  2 H      0.000000000000   0.000000000000  -0.958200000000 AA    0.000000000000   0.000000000000  -1.810735572558 Bohr
[INPUT] ---------------- BASIS SET ---------------- 
[INPUT] l, kappa, [nprim/nctr], expnt,             c_1 c_2 ...
[INPUT] C
[INPUT] 0    0    [9    /1   ]  13.073594         0.0051583
                                6.541187          0.0603424
                                4.573411          -0.1978471
                                1.637494          -0.081034
                                0.819297          0.2321726
                                0.409924          0.2914643
                                0.2313            0.4336405
                                0.102619          0.213194
                                0.051344          0.0049848
[INPUT] 0    0    [1    /1   ]  0.846879             1
[INPUT] 0    0    [1    /1   ]  0.269659             1
[INPUT] 0    0    [1    /1   ]  0.109576             1
[INPUT] 1    0    [9    /1   ]  9.934169          0.0209076
                                3.886955          0.0572698
                                1.871016          0.1122682
                                0.935757          0.2130082
                                0.468003          0.2835815
                                0.239473          0.3011207
                                0.117063          0.2016934
                                0.058547          0.0453575
                                0.029281          0.0029775
[INPUT] 1    0    [1    /1   ]  0.804681             1
[INPUT] 1    0    [1    /1   ]  0.313254             1
[INPUT] 1    0    [1    /1   ]  0.105389             1
[INPUT] 2    0    [1    /1   ]  2.01376              1
[INPUT] 2    0    [1    /1   ]  0.684884             1
[INPUT] 2    0    [1    /1   ]  0.240171             1
[INPUT] 3    0    [1    /1   ]  0.457302             1
[INPUT] 3    0    [1    /1   ]  1.32493              1
[INPUT] 4    0    [1    /1   ]  1.03418              1
[INPUT] H
[INPUT] 0    0    [8    /1   ]  23.843185         0.0041149
                                10.212443         0.0104644
                                4.374164          0.0280111
                                1.873529          0.0758862
                                0.802465          0.1821062
                                0.343709          0.3485214
                                0.147217          0.3782313
                                0.063055          0.1164241
[INPUT] 0    0    [1    /1   ]  0.081856             1
[INPUT] 0    0    [1    /1   ]  0.233254             1
[INPUT] 0    0    [1    /1   ]  0.664673             1
[INPUT] 1    0    [1    /1   ]  0.284469             1
[INPUT] 1    0    [1    /1   ]  0.847159             1
[INPUT] 1    0    [1    /1   ]  2.522868             1
[INPUT] 2    0    [1    /1   ]  0.665279             1
[INPUT] 2    0    [1    /1   ]  2.048739             1
[INPUT] 3    0    [1    /1   ]  1.42146              1

nuclear repulsion = 1.8934688645496
number of shells = 24
number of NR pGTOs = 123
number of NR cGTOs = 84
basis = ccecp-ccpvqz
ecp = ccecp
CPU time:         5.01


******** <class 'pyscf.scf.rohf.ROHF'> ********
method = ROHF-RHF
initial guess = minao
damping factor = 0
level_shift factor = 0
DIIS = <class 'pyscf.scf.diis.CDIIS'>
diis_start_cycle = 1
diis_space = 8
SCF conv_tol = 1e-09
SCF conv_tol_grad = None
SCF max_cycles = 200
direct_scf = True
direct_scf_tol = 1e-13
chkfile to save SCF result = pyscf.chk
max_memory 506292 MB (current use 106 MB)
num. doubly occ = 2  num. singly occ = 1
Set gradient conv threshold to 3.16228e-05
E1 = -12.4085518788639  Ecoul = 4.984903761239449
init E= -5.53017925307485
cond(S) = 17619.999612585707
    CPU time for initialize scf     82.88 sec, wall time      0.85 sec

WARN: HOMO -0.101550203175312 >= LUMO -0.10155020317531

                  Roothaan           | alpha              | beta
  Highest 2-occ = -0.292558725335347 | -0.292558725335346 | -0.292558725335346
  Lowest 0-occ =   -0.10155020317531 | -0.101550203175312 | -0.101550203175312
  1-occ =         -0.101550203175312 | -0.101550203175312 | -0.101550203175312
  Roothaan mo_energy =
[-0.9072687  -0.29255873 -0.1015502  -0.1015502   0.12777557  0.30511993
  0.37415369  0.37415369  0.37884056  0.4633366   0.59199872  0.59199872
  0.66084113  0.66084113  0.85190891  0.91133905  0.91133905  1.07925426
  1.29026539  1.61506927  1.61506927  1.74646121  1.74646121  1.77887387
  1.80189664  1.80189664  1.94474234  1.94474234  2.05055969  2.12678261
  2.12678261  2.16895646  2.18917244  2.18917244  2.53617288  2.53617288
  2.56827945  2.62754016  2.62754016  3.42236577  3.47821034  3.47821034
  3.67074769  5.0937866   5.0937866   5.2116882   5.2116882   5.28128375
  5.28128375  5.46109601  5.46109601  5.59453787  5.71063753  5.71063753
  5.84287191  5.84287191  5.84339356  5.84339356  5.86837711  5.94262147
  5.94262147  6.24519906  6.42860922  6.42860922  6.60947943  6.6964943
  6.6964943   7.19582184  7.19582184  7.64220873  7.64220873  7.80205718
  7.9567033   7.9567033   8.2827504   8.2827504   8.50537403  8.90068469
  8.90068469 10.07402864 10.07402864 10.32100005 10.84741737 18.39148378]
E1 = -12.352228664041455  Ecoul = 4.575229434010211
cycle= 1 E= -5.88353036548164  delta_E= -0.353  |g|= 0.195  |ddm|= 1.44
    CPU time for cycle= 1    131.74 sec, wall time      1.14 sec
  HOMO = -0.198606999435821  LUMO = -0.00524309861538486
                  Roothaan           | alpha              | beta
  Highest 2-occ = -0.498374111862842 | -0.518219782150242 | -0.478528441575443
  Lowest 0-occ =  -0.00524309861538486 | -0.0164220665242636 | 0.00593586929349485
  1-occ =         -0.198606999435821 | -0.438365779491169 | 0.0771501372947509
  Roothaan mo_energy =
[-8.93093752e-01 -4.98374112e-01 -1.98606999e-01 -5.24309862e-03
  1.18234719e-01  3.06241775e-01  3.66061638e-01  3.69180236e-01
  3.72310810e-01  4.59196086e-01  5.67812854e-01  5.72198738e-01
  6.39413393e-01  6.39435158e-01  8.46390443e-01  8.95824452e-01
  9.07845367e-01  1.05197995e+00  1.27869132e+00  1.56152486e+00
  1.57752650e+00  1.72148591e+00  1.72301929e+00  1.76594054e+00
  1.76594143e+00  1.77046100e+00  1.90514678e+00  1.92090923e+00
  2.03951919e+00  2.11287943e+00  2.12963814e+00  2.13295912e+00
  2.14293468e+00  2.15048950e+00  2.50802911e+00  2.50884324e+00
  2.54532438e+00  2.59802466e+00  2.60901788e+00  3.39109728e+00
  3.44439034e+00  3.46250734e+00  3.65311694e+00  5.04862750e+00
  5.04863050e+00  5.14227263e+00  5.14227472e+00  5.23427961e+00
  5.23482060e+00  5.38385520e+00  5.40524473e+00  5.55640136e+00
  5.64398160e+00  5.67088824e+00  5.76436825e+00  5.76469326e+00
  5.80412708e+00  5.81378886e+00  5.85557970e+00  5.91410378e+00
  5.94321640e+00  6.22078840e+00  6.40153919e+00  6.40154235e+00
  6.58425460e+00  6.60663679e+00  6.60819800e+00  7.13474761e+00
  7.15846380e+00  7.60781047e+00  7.60782085e+00  7.77827736e+00
  7.92914388e+00  7.93819249e+00  8.26779081e+00  8.26779082e+00
  8.47873219e+00  8.88206088e+00  8.89151794e+00  1.00389281e+01
  1.00557094e+01  1.03056354e+01  1.08218693e+01  1.82918516e+01]
E1 = -12.640126693643566  Ecoul = 4.841785821619451
cycle= 2 E= -5.90487200747451  delta_E= -0.0213  |g|= 0.0629  |ddm|= 0.475
    CPU time for cycle= 2     96.85 sec, wall time      0.76 sec
  HOMO = -0.134376356595801  LUMO = 0.0418412659902794
                  Roothaan           | alpha              | beta
  Highest 2-occ = -0.453827240448318 | -0.468878166154634 | -0.425244394225112
  Lowest 0-occ =  0.0418412659902794 | 0.0377753499809397 | 0.0593630282769561
  1-occ =         -0.134376356595801 | -0.405686692872968 |  0.154816854703031
  Roothaan mo_energy =
[-0.83737045 -0.45382724 -0.13437636  0.04184127  0.12525137  0.31627984
  0.37538083  0.38622147  0.40367404  0.48692035  0.58885693  0.59410166
  0.66485123  0.66491431  0.86403553  0.90868575  0.91959713  1.06848302
  1.30578422  1.62447489  1.63436485  1.7547475   1.75596016  1.80114399
  1.80117537  1.82137931  1.94635566  1.96215379  2.07921763  2.15566619
  2.17527878  2.18146527  2.20176     2.20643244  2.5283705   2.52901038
  2.57011195  2.61192942  2.6226317   3.43016878  3.47959807  3.49837122
  3.69686118  5.10920624  5.10920951  5.20606617  5.20606878  5.29843492
  5.2990058   5.48158247  5.50356617  5.63736659  5.72410284  5.75380513
  5.84806454  5.84850662  5.88046072  5.89079016  5.93747781  5.98388842
  6.01491724  6.29407588  6.43092487  6.4309296   6.64094521  6.70873951
  6.70950157  7.22434489  7.2507299   7.64984102  7.64984239  7.80204481
  7.95660797  7.96588697  8.29571253  8.29571446  8.55371989  8.91810155
  8.92785566 10.0918152  10.11031888 10.36596093 10.88798891 18.42474437]
E1 = -12.601338869761673  Ecoul = 4.801823048546804
cycle= 3 E= -5.90604695666527  delta_E= -0.00117  |g|= 0.0131  |ddm|= 0.104
    CPU time for cycle= 3     93.69 sec, wall time      0.74 sec
  HOMO = -0.135502119289531  LUMO = 0.0413578989008758
                  Roothaan           | alpha              | beta
  Highest 2-occ =  -0.45544128896381 | -0.477022731978186 | -0.433704483211334
  Lowest 0-occ =  0.0413578989008758 | 0.0303932935239017 | 0.0520104929908472
  1-occ =         -0.135502119289531 | -0.415057169731168 |  0.146132643273464
  Roothaan mo_energy =
[-0.83524919 -0.45544129 -0.13550212  0.0413579   0.12619543  0.31657608
  0.37321531  0.38698237  0.40343171  0.48888601  0.59003309  0.5956596
  0.66517784  0.66524866  0.86416959  0.90942768  0.92020296  1.06956093
  1.30816901  1.62260935  1.63217467  1.7558863   1.75714986  1.801266
  1.80129874  1.81973657  1.94792162  1.96386242  2.07895556  2.15458379
  2.17429698  2.18137393  2.20029472  2.20529709  2.53089727  2.53154161
  2.57269894  2.61554771  2.62621221  3.43167305  3.48155669  3.50044391
  3.69980646  5.1093084   5.10931161  5.20480365  5.20480623  5.29998419
  5.30057504  5.47747567  5.49988506  5.63639958  5.72353851  5.75366795
  5.84525854  5.84573278  5.87677598  5.88747549  5.93391266  5.98137575
  6.01276825  6.29607939  6.43592397  6.43592874  6.64239901  6.70465108
  6.70550875  7.2214262   7.24831584  7.65329885  7.65330794  7.80791615
  7.96299     7.97227685  8.30386726  8.30386886  8.55562128  8.92600916
  8.93579593 10.09614915 10.1148719  10.37177611 10.89183472 18.41985011]
E1 = -12.605832549713352  Ecoul = 4.806180427409794
cycle= 4 E= -5.90618325775396  delta_E= -0.000136  |g|= 0.0029  |ddm|= 0.0384
    CPU time for cycle= 4     91.90 sec, wall time      0.72 sec
  HOMO = -0.133956151409434  LUMO = 0.0420649706835777
                  Roothaan           | alpha              | beta
  Highest 2-occ = -0.454470662832403 | -0.476255986065795 | -0.432493704124478
  Lowest 0-occ =  0.0420649706835777 | 0.0313540808565149 | 0.0529443106078266
  1-occ =         -0.133956151409434 | -0.415673574094343 |  0.147971675356659
  Roothaan mo_energy =
[-0.83454729 -0.45447066 -0.13395615  0.04206497  0.12583181  0.31688048
  0.37273195  0.38762348  0.40419651  0.48877201  0.58995089  0.59553222
  0.66557311  0.66564294  0.86453525  0.90944837  0.92017489  1.06915802
  1.30782181  1.62378943  1.63283437  1.75617836  1.7574229   1.80179266
  1.80182629  1.82140226  1.9479939   1.96390205  2.07986115  2.15579341
  2.17547562  2.18213422  2.2012955   2.20623793  2.53034287  2.53097931
  2.57218937  2.6145693   2.62518504  3.43165876  3.48146487  3.50033825
  3.6997277   5.11004749  5.11005067  5.20576726  5.2057699   5.30033833
  5.30092816  5.4794175   5.50180166  5.6376872   5.72445854  5.75467309
  5.84668081  5.8471559   5.87858668  5.88929951  5.93598686  5.98296918
  6.01444456  6.2966786   6.43503088  6.43503575  6.64277965  6.70646138
  6.7073098   7.2229806   7.24997592  7.6528895   7.65289835  7.80678653
  7.96184393  7.97110507  8.30250722  8.30250898  8.55622982  8.92485634
  8.9346113  10.09586823 10.11462907 10.37143241 10.89195188 18.42247703]
E1 = -12.604301791875137  Ecoul = 4.804643839359489
cycle= 5 E= -5.90618908796605  delta_E= -5.83e-06  |g|= 0.000449  |ddm|= 0.00809
    CPU time for cycle= 5     77.55 sec, wall time      0.61 sec
  HOMO = -0.134190922662591  LUMO = 0.0419099525542894
                  Roothaan           | alpha              | beta
  Highest 2-occ = -0.454642848056219 | -0.476577284597546 | -0.432819313251264
  Lowest 0-occ =  0.0419099525542894 | 0.0310653958364183 | 0.0526593228516274
  1-occ =         -0.134190922662591 |   -0.4161324560652 |  0.147592957483457
  Roothaan mo_energy =
[-0.83468633 -0.45464285 -0.13419092  0.04190995  0.12577627  0.31684037
  0.37278215  0.38756459  0.40410082  0.48866462  0.58986289  0.59543449
  0.66547101  0.6655413   0.86444974  0.90936975  0.9200966   1.06906603
  1.30770798  1.6235988   1.63261987  1.75605089  1.7572954   1.80165081
  1.80168478  1.82119292  1.94787085  1.96377118  2.07970628  2.15561935
  2.17529352  2.1819687   2.2010904   2.20604164  2.53022546  2.53086185
  2.57206969  2.61445636  2.62507336  3.43150845  3.48132501  3.50019127
  3.69958918  5.10983123  5.10983443  5.20551659  5.20551921  5.30017114
  5.30076045  5.47914457  5.50151284  5.63748347  5.72426515  5.7544608
  5.84638609  5.84686108  5.8782774   5.88898105  5.93564887  5.9826969
  6.01415018  6.29649818  6.43490324  6.43490809  6.64257687  6.70615797
  6.70700612  7.222711    7.24969043  7.65273286  7.65274151  7.806658
  7.96172564  7.97098873  8.3024146   8.30241631  8.55605251  8.92476736
  8.93452306 10.09572469 10.11447887 10.37131511 10.89179688 18.42218892]
E1 = -12.604443843387152  Ecoul = 4.804785726662189
cycle= 6 E= -5.90618925217536  delta_E= -1.64e-07  |g|= 8.29e-05  |ddm|= 0.00143
    CPU time for cycle= 6     57.99 sec, wall time      0.46 sec
  HOMO = -0.134213873042532  LUMO = 0.0418987439620972
                  Roothaan           | alpha              | beta
  Highest 2-occ = -0.454661069730086 | -0.476549756108777 | -0.432791907868607
  Lowest 0-occ =  0.0418987439620972 | 0.0310909599783542 | 0.0526857477581453
  1-occ =         -0.134213873042532 | -0.416095668545448 |  0.147627793201589
  Roothaan mo_energy =
[-0.83470882 -0.45466107 -0.13421387  0.04189874  0.12576631  0.31684199
  0.37279119  0.3875662   0.40409273  0.48864801  0.58985829  0.59543069
  0.66547138  0.66554178  0.86444638  0.90936407  0.92009289  1.06905352
  1.3076926   1.62357853  1.63262259  1.75604912  1.75729386  1.801652
  1.80168588  1.82117782  1.94786237  1.96376347  2.07970105  2.15561112
  2.17528642  2.18195562  2.20107746  2.20602799  2.53021393  2.53085071
  2.57205207  2.61443706  2.62505607  3.43148952  3.48131083  3.5001785
  3.69957262  5.10982097  5.10982417  5.20550416  5.20550678  5.30016211
  5.30075145  5.47909842  5.50146869  5.63746418  5.7242466   5.75444065
  5.84635681  5.84683175  5.87824977  5.88895316  5.93561505  5.982676
  6.01412818  6.29647027  6.43488848  6.43489334  6.64255223  6.70611409
  6.70696224  7.22267357  7.24965036  7.65271507  7.65272368  7.80663156
  7.96170184  7.97096611  8.30239847  8.30240018  8.55602813  8.92475261
  8.93450973 10.09570549 10.11445923 10.37129681 10.89176982 18.42211988]
E1 = -12.604467408590518  Ecoul = 4.80480928625799
cycle= 7 E= -5.90618925778293  delta_E= -5.61e-09  |g|= 1.29e-05  |ddm|= 0.000311
    CPU time for cycle= 7    122.22 sec, wall time      0.96 sec
  HOMO = -0.134221629221247  LUMO = 0.0418941481798343
                  Roothaan           | alpha              | beta
  Highest 2-occ = -0.454667136509448 | -0.476546422945229 |  -0.43278987020888
  Lowest 0-occ =  0.0418941481798343 | 0.0310953635314363 | 0.0526903408006321
  1-occ =         -0.134221629221247 | -0.416079777107568 |  0.147631213701403
  Roothaan mo_energy =
[-0.83471543 -0.45466714 -0.13422163  0.04189415  0.12576403  0.31684086
  0.37279685  0.38756276  0.40408891  0.48864309  0.58985472  0.59542705
  0.66546796  0.66553827  0.86444382  0.90936137  0.92009052  1.06904979
  1.30768731  1.62357193  1.63261634  1.75604446  1.7572892   1.8016473
  1.80168117  1.82117222  1.94785672  1.96375796  2.07969657  2.15560639
  2.17528188  2.18194939  2.20107105  2.20602185  2.53020893  2.53084572
  2.57204656  2.61443162  2.62505078  3.43148331  3.48130493  3.50017245
  3.6995661   5.10981346  5.10981665  5.20549574  5.20549835  5.3001546
  5.30074391  5.4790895   5.50145938  5.63745682  5.72423891  5.75443216
  5.84634693  5.84682185  5.87824223  5.8889451   5.93560665  5.9826694
  6.01412083  6.29646216  6.43488161  6.43488646  6.64254459  6.70610358
  6.70695174  7.22266508  7.24964096  7.65270761  7.65271623  7.80662405
  7.9616943   7.97095852  8.30239084  8.30239255  8.55602018  8.9247449
  8.93450193 10.09569769 10.11445095 10.37128872 10.89176146 18.4221089 ]
E1 = -12.60447528100718  Ecoul = 4.804817158566403
cycle= 8 E= -5.90618925789117  delta_E= -1.08e-10  |g|= 1.61e-06  |ddm|= 3.71e-05
    CPU time for cycle= 8     89.35 sec, wall time      0.70 sec
  HOMO = -0.134221480402849  LUMO = 0.0418943388582772
                  Roothaan           | alpha              | beta
  Highest 2-occ = -0.454667177373187 | -0.476545323904085 | -0.432789030842291
  Lowest 0-occ =  0.0418943388582772 |  0.031096860999949 | 0.0526918167165912
  1-occ =         -0.134221480402849 | -0.416075958533219 |  0.147632718024581
  Roothaan mo_energy =
[-0.83471533 -0.45466718 -0.13422148  0.04189434  0.12576414  0.31684094
  0.3727971   0.38756279  0.40408903  0.48864329  0.58985489  0.59542719
  0.66546808  0.66553839  0.86444395  0.9093615   0.92009071  1.06904991
  1.30768747  1.62357216  1.6326168   1.75604466  1.75728939  1.80164747
  1.80168134  1.82117252  1.9478569   1.96375814  2.07969684  2.1556067
  2.1752822   2.18194959  2.20107132  2.20602211  2.53020911  2.53084591
  2.57204672  2.61443176  2.62505095  3.4314835   3.48130513  3.50017267
  3.69956631  5.10981374  5.10981693  5.20549597  5.20549859  5.30015479
  5.3007441   5.47908986  5.50145972  5.63745709  5.72423916  5.75443238
  5.84634719  5.84682211  5.87824279  5.88894563  5.93560723  5.98266994
  6.01412136  6.29646244  6.43488181  6.43488667  6.64254492  6.70610386
  6.706952    7.22266548  7.24964133  7.65270781  7.65271643  7.80662419
  7.96169443  7.97095867  8.30239099  8.30239271  8.55602047  8.92474502
  8.93450208 10.09569788 10.11445115 10.3712889  10.89176169 18.42210915]
E1 = -12.60447522193512  Ecoul = 4.804817099492104
Extra cycle  E= -5.90618925789341  delta_E= -2.24e-12  |g|= 6.22e-07  |ddm|= 4.82e-06
    CPU time for scf_cycle    871.48 sec, wall time      7.16 sec
    CPU time for SCF    871.48 sec, wall time      7.16 sec
converged SCF energy = -5.90618925789341
