#INFO: **** input file is /home/nkousuke/lustre/toBeSync/turboRVB/05turbo-genius-development/turbogenius_paper/04data/sanity_checks/03pyscf_HF_turbo_VMC_via_trexio/00open_boundary/results/OH/pyscf-HF-workflow/run.py ****

from pyscf_wrapper import Pyscf_wrapper

# input variables
pyscf_chkfile="pyscf.chk"
structure_file="OH.xyz"

# input variables
omp_num_threads=128
charge=0
spin=1
basis="ccecp-ccpvqz"
ecp="ccecp"
scf_method="HF"
dft_xc="NA"
solver_newton=False
MP2_flag=False
CCSD_flag=False
pyscf_output="out.pyscf"
twist_average=False
exp_to_discard=0.0
kpt=[0.0, 0.0, 0.0]
kpt_grid=[1, 1, 1]
smearing_method="fermi"
smearing_sigma=0.0

pyscf_calc=Pyscf_wrapper(
                        structure_file=structure_file,
                        chkfile=pyscf_chkfile,
                        )

pyscf_calc.run_pyscf(
                  omp_num_threads=omp_num_threads,
                  charge=charge,
                  spin=spin,
                  basis=basis,
                  ecp=ecp,
                  scf_method=scf_method,
                  dft_xc=dft_xc,
                  solver_newton=solver_newton,
                  MP2_flag=MP2_flag,
                  CCSD_flag=CCSD_flag,
                  pyscf_output=pyscf_output,
                  twist_average=twist_average,
                  exp_to_discard=exp_to_discard,
                  kpt=kpt,
                  kpt_grid=kpt_grid,
                  smearing_method=smearing_method,
                  smearing_sigma=smearing_sigma
                  )
                #INFO: ******************** input file end ********************


System: uname_result(system='Linux', node='spcc-200', release='5.4.0-66-generic', version='#74-Ubuntu SMP Wed Jan 27 22:54:38 UTC 2021', machine='x86_64', processor='x86_64')  Threads 128
Python 3.7.3 (default, Mar 27 2019, 22:11:17) 
[GCC 7.3.0]
numpy 1.20.1  scipy 1.7.3
Date: Mon Dec 19 18:06:43 2022
PySCF version 2.0.1
PySCF path  /home/nkousuke/application/anaconda3/lib/python3.7/site-packages/pyscf

[CONFIG] conf_file /home/nkousuke/.pyscf_conf.py
[INPUT] verbose = 5
[INPUT] max_memory = 507463.16796875 
[INPUT] num. atoms = 2
[INPUT] num. electrons = 7
[INPUT] charge = 0
[INPUT] spin (= nelec alpha-beta = 2S) = 1
[INPUT] symmetry False subgroup None
[INPUT] Mole.unit = A
[INPUT]  1 O      0.000000000000   0.000000000000   0.107740000000 AA    0.000000000000   0.000000000000   0.203599092661 Bohr
[INPUT]  2 H      0.000000000000   0.000000000000  -0.861960000000 AA    0.000000000000   0.000000000000  -1.628868330330 Bohr
[INPUT] ---------------- BASIS SET ---------------- 
[INPUT] l, kappa, [nprim/nctr], expnt,             c_1 c_2 ...
[INPUT] H
[INPUT] 0    0    [8    /1   ]  23.843185         0.0041149
                                10.212443         0.0104644
                                4.374164          0.0280111
                                1.873529          0.0758862
                                0.802465          0.1821062
                                0.343709          0.3485214
                                0.147217          0.3782313
                                0.063055          0.1164241
[INPUT] 0    0    [1    /1   ]  0.081856             1
[INPUT] 0    0    [1    /1   ]  0.233254             1
[INPUT] 0    0    [1    /1   ]  0.664673             1
[INPUT] 1    0    [1    /1   ]  0.284469             1
[INPUT] 1    0    [1    /1   ]  0.847159             1
[INPUT] 1    0    [1    /1   ]  2.522868             1
[INPUT] 2    0    [1    /1   ]  0.665279             1
[INPUT] 2    0    [1    /1   ]  2.048739             1
[INPUT] 3    0    [1    /1   ]  1.42146              1
[INPUT] O
[INPUT] 0    0    [9    /1   ]  54.775216         -0.0012444
                                25.616801         0.010733
                                11.980245         0.0018889
                                6.992317          -0.1742537
                                2.620277          0.0017622
                                1.225429          0.3161846
                                0.577797          0.4512023
                                0.268022          0.3121534
                                0.125346          0.0511167
[INPUT] 0    0    [1    /1   ]  1.351771             1
[INPUT] 0    0    [1    /1   ]  0.843157             1
[INPUT] 0    0    [1    /1   ]  0.22438              1
[INPUT] 1    0    [9    /1   ]  22.217266         0.0104866
                                10.74755          0.0366435
                                5.315785          0.0803674
                                2.660761          0.162701
                                1.331816          0.2377791
                                0.678626          0.2811422
                                0.333673          0.2643189
                                0.167017          0.1466014
                                0.083598          0.0458145
[INPUT] 1    0    [1    /1   ]  1.106737             1
[INPUT] 1    0    [1    /1   ]  0.452364             1
[INPUT] 1    0    [1    /1   ]  0.148562             1
[INPUT] 2    0    [1    /1   ]  4.008867             1
[INPUT] 2    0    [1    /1   ]  1.344331             1
[INPUT] 2    0    [1    /1   ]  0.455711             1
[INPUT] 3    0    [1    /1   ]  2.763115             1
[INPUT] 3    0    [1    /1   ]  0.876289             1
[INPUT] 4    0    [1    /1   ]  1.759081             1

nuclear repulsion = 3.274273760462
number of shells = 24
number of NR pGTOs = 123
number of NR cGTOs = 84
basis = ccecp-ccpvqz
ecp = ccecp
CPU time:         5.76


******** <class 'pyscf.scf.rohf.ROHF'> ********
method = ROHF-RHF
initial guess = minao
damping factor = 0
level_shift factor = 0
DIIS = <class 'pyscf.scf.diis.CDIIS'>
diis_start_cycle = 1
diis_space = 8
SCF conv_tol = 1e-09
SCF conv_tol_grad = None
SCF max_cycles = 200
direct_scf = True
direct_scf_tol = 1e-13
chkfile to save SCF result = pyscf.chk
max_memory 507463 MB (current use 106 MB)
num. doubly occ = 3  num. singly occ = 1
Set gradient conv threshold to 3.16228e-05
E1 = -32.82323787860805  Ecoul = 13.676292456573107
init E= -15.8726716615729
cond(S) = 14231.76436875935
    CPU time for initialize scf     64.47 sec, wall time      0.62 sec
  HOMO = -0.447376379015387  LUMO = 0.0904810405848551
                  Roothaan           | alpha              | beta
  Highest 2-occ =  -0.44737637901539 | -0.447376379015387 | -0.447376379015387
  Lowest 0-occ =  0.0904810405848551 | 0.0904810405848552 | 0.0904810405848552
  1-occ =         -0.447376379015387 | -0.447376379015387 | -0.447376379015387
  Roothaan mo_energy =
[-1.48388198 -0.62736453 -0.44737638 -0.44737638  0.09048104  0.36458546
  0.40304068  0.43778094  0.43778094  0.66609781  0.66609781  0.90131344
  1.05191732  1.20187956  1.20187956  1.23661033  1.4571455   1.4571455
  1.66107425  2.0315611   2.0315611   2.2277723   2.2277723   2.42039567
  2.42039567  2.58658013  2.69693092  2.84106588  2.84106588  3.32602652
  3.40231997  3.40231997  3.75047615  3.75047615  4.09481057  4.12334835
  4.12334835  4.12757892  4.12757892  4.5272654   4.78881864  4.78881864
  5.58768195  6.17861255  6.17861255  6.82827511  6.82827511  6.85975622
  6.85975622  6.97658949  7.63705389  7.82612456  7.82612456  7.85580472
  8.02024706  8.02024706  8.09524622  8.09524622  8.73681928  8.79966824
  8.79966824  8.99705326  8.99705326  9.25544165  9.25544165 10.17152486
 10.17152486 10.72411278 11.01904958 11.01904958 11.4626418  11.68348888
 11.68348888 11.83316598 11.83316598 12.43764749 12.43764749 12.93826771
 12.93826771 13.8866976  14.5510563  14.5510563  16.49664898 32.73709219]
E1 = -33.4892885262022  Ecoul = 13.927909538319671
cycle= 1 E= -16.2871052274205  delta_E= -0.414  |g|= 0.23  |ddm|=  1.6
    CPU time for cycle= 1     82.60 sec, wall time      0.74 sec
  HOMO = -0.240454039861567  LUMO = 0.105832459855955
                  Roothaan           | alpha              | beta
  Highest 2-occ =  -0.52794100928709 | -0.546729162030481 | -0.509152856543707
  Lowest 0-occ =   0.105832459855955 |  0.102435335542428 |  0.109229584169491
  1-occ =         -0.240454039861567 | -0.622200310835896 |  0.152298060506396
  Roothaan mo_energy =
[-1.32575807 -0.65825404 -0.52794101 -0.24045404  0.10583246  0.40556308
  0.42756129  0.46914106  0.47475588  0.63606684  0.64249203  0.94316507
  1.04976147  1.22410448  1.2495228   1.24999589  1.49791575  1.51019456
  1.72085274  2.10274506  2.10947984  2.18737118  2.18740822  2.35564449
  2.36635408  2.58070505  2.71179447  2.80816533  2.82447208  3.32237506
  3.47564041  3.47579916  3.80934735  3.80971148  4.16890091  4.2258193
  4.23469888  4.23516733  4.25259746  4.61986631  4.82191629  4.84985832
  5.59427618  6.11420785  6.11420812  6.83240328  6.83242061  6.91523965
  6.93770315  7.07418773  7.56790874  7.75731194  7.7697879   7.84857257
  7.9844106   8.00027882  8.00030868  8.00461881  8.74424127  8.90613424
  8.90613428  9.09693734  9.09700498  9.20773852  9.22680858 10.24772054
 10.24779659 10.85678604 11.11263079 11.15073756 11.47853832 11.82263952
 11.82268162 11.98278018 11.98355431 12.54498905 12.58868765 13.09348932
 13.09349792 13.98277347 14.65609712 14.69231933 16.59088219 32.93196333]
E1 = -33.415974954890615  Ecoul = 13.84206519366187
cycle= 2 E= -16.2996360007667  delta_E= -0.0125  |g|= 0.0465  |ddm|= 0.275
    CPU time for cycle= 2    135.81 sec, wall time      1.06 sec
  HOMO = -0.254168732329509  LUMO = 0.114096618729022
                  Roothaan           | alpha              | beta
  Highest 2-occ =  -0.54248214532318 | -0.562906693831957 | -0.525067608892623
  Lowest 0-occ =   0.114096618729022 |  0.111643261964644 |  0.118201539429764
  1-occ =         -0.254168732329509 | -0.648602723013424 |  0.143696779355654
  Roothaan mo_energy =
[-1.32930003 -0.66733575 -0.54248215 -0.25416873  0.11409662  0.39501652
  0.44299611  0.46539125  0.46571725  0.65052627  0.65589843  0.94308935
  1.0555757   1.23793604  1.24589157  1.24657254  1.49263227  1.50441209
  1.71294466  2.09191874  2.09945188  2.20949     2.20953287  2.38310326
  2.39357609  2.59911504  2.70558487  2.82666901  2.842512    3.34019231
  3.46753167  3.46756843  3.80566946  3.80600791  4.15961197  4.20478742
  4.21506784  4.2155066   4.23062545  4.60911254  4.82340141  4.85013758
  5.61257636  6.15211219  6.1521126   6.86174331  6.8617557   6.90282682
  6.9246211   7.05800585  7.60962391  7.79039013  7.80246905  7.87101066
  8.02026879  8.03995811  8.0509026   8.05093003  8.76281679  8.89100126
  8.89100133  9.08469699  9.08472438  9.24302126  9.26125417 10.24441624
 10.24445929 10.83170712 11.09721453 11.13330893 11.50364842 11.79757208
 11.79759468 11.95429008 11.95504131 12.52714201 12.56821049 13.0623868
 13.06238876 13.97744622 14.63811577 14.67228654 16.58634544 32.88679818]
E1 = -33.48369909916328  Ecoul = 13.909188085252914
cycle= 3 E= -16.3002372534484  delta_E= -0.000601  |g|= 0.0186  |ddm|= 0.0574
    CPU time for cycle= 3     92.93 sec, wall time      0.73 sec
  HOMO = -0.24318945546338  LUMO = 0.115398218424358
                  Roothaan           | alpha              | beta
  Highest 2-occ =  -0.53467595495899 | -0.552916409168905 | -0.514790349918195
  Lowest 0-occ =   0.115398218424358 |  0.112046040381945 |  0.118396880255661
  1-occ =          -0.24318945546338 | -0.641650304261495 |  0.157113109645426
  Roothaan mo_energy =
[-1.32015761 -0.65910002 -0.53467595 -0.24318946  0.11539822  0.39612293
  0.4468605   0.46464767  0.46728626  0.65213769  0.65762     0.9468192
  1.05816989  1.24101027  1.24971783  1.25033845  1.49635122  1.50803888
  1.71738783  2.09709723  2.10579047  2.21203494  2.21207467  2.38615389
  2.39666873  2.60341379  2.70988532  2.82998882  2.84585581  3.3457478
  3.47264621  3.47271577  3.81093713  3.81126952  4.16580635  4.21249577
  4.22386818  4.2243186   4.23819667  4.61815475  4.82963586  4.85625824
  5.62001033  6.15607433  6.1560748   6.86697847  6.8669905   6.91469373
  6.93630644  7.06852693  7.61529939  7.79680222  7.80888136  7.88061908
  8.02739959  8.04705361  8.05605701  8.05608634  8.77038992  8.89971363
  8.8997137   9.09316333  9.0931912   9.25015458  9.26836214 10.25269736
 10.2527378  10.84303274 11.10765346 11.14343275 11.51320783 11.81100511
 11.81103949 11.96736785 11.96809902 12.5400902  12.58075302 13.07847281
 13.07847707 13.99051101 14.65205999 14.6859046  16.59923879 32.90850191]
E1 = -33.4544617617122  Ecoul = 13.879876387840254
cycle= 4 E= -16.3003116134099  delta_E= -7.44e-05  |g|= 0.00558  |ddm|= 0.0236
    CPU time for cycle= 4     83.24 sec, wall time      0.66 sec
  HOMO = -0.246180783627848  LUMO = 0.11530734232567
                  Roothaan           | alpha              | beta
  Highest 2-occ = -0.537363195078393 | -0.557445419606357 | -0.519309187455751
  Lowest 0-occ =    0.11530734232567 |  0.112008690684848 |  0.118386842415621
  1-occ =         -0.246180783627848 | -0.646855846759322 |  0.152718127649783
  Roothaan mo_energy =
[-1.3226417  -0.66086817 -0.5373632  -0.24618078  0.11530734  0.39583109
  0.44655269  0.46388318  0.46664002  0.65197452  0.65751482  0.94583705
  1.05787419  1.24053507  1.24857778  1.24923138  1.49543358  1.50712408
  1.71651246  2.09463477  2.10380238  2.21191975  2.21195972  2.38622767
  2.39679752  2.60313871  2.70902753  2.82947498  2.84539621  3.34472185
  3.47099915  3.47106862  3.8094087   3.80974087  4.16399138  4.21032086
  4.22104518  4.22150165  4.23606616  4.61571073  4.82802921  4.85470176
  5.61909674  6.15610808  6.15610857  6.86629261  6.86630367  6.9112228
  6.93297383  7.06622741  7.61541542  7.7967366   7.80887088  7.87868941
  8.02636654  8.04603562  8.05667324  8.05670234  8.76913407  8.89706203
  8.8970621   9.0905497   9.09057676  9.24968346  9.26789558 10.25031011
 10.25035107 10.84012659 11.10487234 11.14065413 11.5111009  11.80698817
 11.80702393 11.96324786 11.96397746 12.53579989 12.57638925 13.07354979
 13.07355721 13.98647116 14.64799225 14.68176602 16.59565336 32.90177804]
E1 = -33.46286570188745  Ecoul = 13.888270535671623
cycle= 5 E= -16.3003214057538  delta_E= -9.79e-06  |g|= 0.000959  |ddm|= 0.00847
    CPU time for cycle= 5     76.71 sec, wall time      0.60 sec
  HOMO = -0.245986176132828  LUMO = 0.115363207260986
                  Roothaan           | alpha              | beta
  Highest 2-occ = -0.537313860930789 | -0.556278892428257 | -0.518092728263772
  Lowest 0-occ =   0.115363207260986 |   0.11217581290291 |  0.118540235121925
  1-occ =         -0.245986176132828 |  -0.64610478761363 |  0.154439433583971
  Roothaan mo_energy =
[-1.32247511 -0.6605862  -0.53731386 -0.24598618  0.11536321  0.3958148
  0.44669427  0.46372788  0.4666353   0.65202689  0.65758506  0.94588974
  1.05798055  1.24061484  1.24862612  1.24928684  1.49545659  1.50715979
  1.71656623  2.09457621  2.10389291  2.21201874  2.21205886  2.38636743
  2.39695207  2.60331509  2.7091012   2.82957632  2.84551354  3.34487255
  3.47106271  3.4711287   3.80946706  3.80979958  4.1640293   4.21034905
  4.22115704  4.22161572  4.23612628  4.61584686  4.82811558  4.8548129
  5.61929098  6.15626926  6.15626975  6.86644708  6.86645807  6.91142565
  6.93322204  7.06637615  7.61568221  7.79701294  7.80915586  7.87895784
  8.02654725  8.04622919  8.05691768  8.05694668  8.76930746  8.8972244
  8.89722447  9.09066002  9.09068703  9.24991128  9.26813163 10.25041726
 10.2504586  10.84019673 11.10494189 11.14075818 11.51133902 11.80728153
 11.80731651 11.96343054 11.96416075 12.53596548 12.5765757  13.07389202
 13.07390024 13.98669313 14.64820135 14.68198954 16.59583266 32.90221931]
E1 = -33.46197176723347  Ecoul = 13.887376159689259
cycle= 6 E= -16.3003218470822  delta_E= -4.41e-07  |g|= 0.000171  |ddm|= 0.00174
    CPU time for cycle= 6     87.43 sec, wall time      0.69 sec
  HOMO = -0.246015381344561  LUMO = 0.115368387559735
                  Roothaan           | alpha              | beta
  Highest 2-occ = -0.537373284036335 |  -0.55645711270337 | -0.518265732575209
  Lowest 0-occ =   0.115368387559735 |  0.112183934691933 |  0.118548355548109
  1-occ =         -0.246015381344561 | -0.646323782057829 |   0.15429170899322
  Roothaan mo_energy =
[-1.32250401 -0.66056683 -0.53737328 -0.24601538  0.11536839  0.39580422
  0.4467075   0.4637272   0.46661126  0.65203613  0.65759405  0.9458783
  1.05799142  1.24062641  1.24861651  1.24927764  1.49544625  1.50714568
  1.71655773  2.09457375  2.10386247  2.21203466  2.2120748   2.38639582
  2.39697394  2.60333595  2.70909687  2.82959162  2.84552209  3.34488059
  3.47104797  3.47111459  3.80945337  3.80978593  4.16400758  4.21032556
  4.22113331  4.22159158  4.23609552  4.61582782  4.82810989  4.85480179
  5.61930038  6.15629435  6.15629484  6.8664615   6.86647257  6.91141044
  6.93319877  7.06635744  7.61571823  7.79705122  7.809188    7.8789643
  8.02656131  8.04623726  8.05695689  8.05698584  8.7693132   8.89721208
  8.89721215  9.090641    9.09066799  9.24993718  9.26815133 10.25040079
 10.250442   10.84016365 11.10491461 11.14072868 11.51133959 11.80726536
 11.80730052 11.96339829 11.9641287  12.53592876 12.57654099 13.07386725
 13.0738752  13.98666398 14.64817161 14.68196083 16.59580354 32.90217   ]
E1 = -33.46202020577964  Ecoul = 13.887424579392071
cycle= 7 E= -16.3003218659256  delta_E= -1.88e-08  |g|= 2.25e-05  |ddm|= 0.00034
    CPU time for cycle= 7     43.81 sec, wall time      0.35 sec
  HOMO = -0.246010858590121  LUMO = 0.115370536852406
                  Roothaan           | alpha              | beta
  Highest 2-occ = -0.537374761283843 | -0.556466863431944 |  -0.51827524313862
  Lowest 0-occ =   0.115370536852406 |  0.112188063662372 |  0.118552376527021
  1-occ =         -0.246010858590121 | -0.646316901035192 |  0.154297007075897
  Roothaan mo_energy =
[-1.32249934 -0.66055905 -0.53737476 -0.24601086  0.11537054  0.39580357
  0.44671182  0.46372929  0.46660958  0.65203977  0.65759727  0.9458804
  1.05799456  1.24062949  1.24861863  1.24928014  1.49544859  1.5071479
  1.71656065  2.09457944  2.10386389  2.21203947  2.21207961  2.38640197
  2.3969794   2.60334163  2.70910006  2.82959628  2.84552637  3.34488586
  3.47105076  3.47111733  3.80945669  3.80978926  4.16401121  4.21032906
  4.22113743  4.22159569  4.23609942  4.61583269  4.82811407  4.85480646
  5.61930675  6.15630096  6.15630145  6.86646743  6.86647849  6.9114169
  6.93320496  7.06636341  7.61572592  7.79705958  7.80919622  7.87897144
  8.02656715  8.04624353  8.0569649   8.05699384  8.76931956  8.89721716
  8.89721723  9.0906458   9.0906728   9.24994436  9.26815892 10.2504059
 10.25044714 10.84016981 11.10491943 11.14073503 11.51134571 11.80727259
 11.80730774 11.96340464 11.96413513 12.53593307 12.5765482  13.07387518
 13.07388317 13.98667015 14.64817735 14.68196909 16.59580993 32.90217907]
E1 = -33.46201499087486  Ecoul = 13.88741936415714
cycle= 8 E= -16.3003218662557  delta_E= -3.3e-10  |g|= 4.1e-06  |ddm|= 5.52e-05
    CPU time for cycle= 8    124.24 sec, wall time      0.98 sec
  HOMO = -0.24600974443509  LUMO = 0.115370627141664
                  Roothaan           | alpha              | beta
  Highest 2-occ = -0.537374396601841 |  -0.55647013009143 | -0.518278663112247
  Lowest 0-occ =   0.115370627141664 |  0.112188455995709 |  0.118552798287616
  1-occ =          -0.24600974443509 | -0.646314917382049 |  0.154294977555293
  Roothaan mo_energy =
[-1.32249812 -0.66055815 -0.5373744  -0.24600974  0.11537063  0.39580382
  0.44671206  0.46373059  0.46660956  0.65203971  0.6575973   0.94588091
  1.05799478  1.24062979  1.24861919  1.24928067  1.49544904  1.5071484
  1.71656123  2.09458074  2.10386453  2.21203955  2.21207969  2.38640198
  2.3969794   2.6033419   2.7091006   2.82959647  2.84552655  3.34488631
  3.47105155  3.47111812  3.80945739  3.80978997  4.1640121   4.21033027
  4.22113878  4.22159702  4.2361006   4.61583389  4.82811478  4.8548072
  5.6193073   6.15630098  6.15630147  6.86646769  6.86647875  6.91141847
  6.93320646  7.06636476  7.61572592  7.79705977  7.80919644  7.87897221
  8.02656742  8.04624391  8.05696475  8.05699369  8.76932016  8.89721846
  8.89721853  9.09064702  9.09067402  9.2499446   9.26815926 10.25040696
 10.2504482  10.84017144 11.10492077 11.14073652 11.51134639 11.80727453
 11.80730968 11.96340657 11.96413707 12.53593465 12.57655011 13.07387748
 13.07388547 13.98667169 14.64817905 14.68197109 16.59581142 32.90218216]
E1 = -33.46201339125163  Ecoul = 13.887417764526026
Extra cycle  E= -16.3003218662636  delta_E= -7.88e-12  |g|= 1.54e-06  |ddm|= 6.35e-06
    CPU time for scf_cycle    845.61 sec, wall time      6.87 sec
    CPU time for SCF    846.03 sec, wall time      6.87 sec
converged SCF energy = -16.3003218662636
