#INFO: **** input file is /home/nkousuke/lustre/toBeSync/turboRVB/05turbo-genius-development/turbogenius_paper/04data/sanity_checks/03pyscf_HF_turbo_VMC_via_trexio/00open_boundary/results/Ge/pyscf-HF-workflow/run.py ****

from pyscf_wrapper import Pyscf_wrapper

# input variables
pyscf_chkfile="pyscf.chk"
structure_file="Ge.xyz"

# input variables
omp_num_threads=128
charge=0
spin=2
basis="ccecp-ccpvqz"
ecp="ccecp"
scf_method="HF"
dft_xc="NA"
solver_newton=False
MP2_flag=False
CCSD_flag=False
pyscf_output="out.pyscf"
twist_average=False
exp_to_discard=0.0
kpt=[0.0, 0.0, 0.0]
kpt_grid=[1, 1, 1]
smearing_method="fermi"
smearing_sigma=0.0

pyscf_calc=Pyscf_wrapper(
                        structure_file=structure_file,
                        chkfile=pyscf_chkfile,
                        )

pyscf_calc.run_pyscf(
                  omp_num_threads=omp_num_threads,
                  charge=charge,
                  spin=spin,
                  basis=basis,
                  ecp=ecp,
                  scf_method=scf_method,
                  dft_xc=dft_xc,
                  solver_newton=solver_newton,
                  MP2_flag=MP2_flag,
                  CCSD_flag=CCSD_flag,
                  pyscf_output=pyscf_output,
                  twist_average=twist_average,
                  exp_to_discard=exp_to_discard,
                  kpt=kpt,
                  kpt_grid=kpt_grid,
                  smearing_method=smearing_method,
                  smearing_sigma=smearing_sigma
                  )
                #INFO: ******************** input file end ********************


System: uname_result(system='Linux', node='spcc-238', release='5.4.0-66-generic', version='#74-Ubuntu SMP Wed Jan 27 22:54:38 UTC 2021', machine='x86_64', processor='x86_64')  Threads 128
Python 3.7.3 (default, Mar 27 2019, 22:11:17) 
[GCC 7.3.0]
numpy 1.20.1  scipy 1.7.3
Date: Mon Dec 19 18:06:27 2022
PySCF version 2.0.1
PySCF path  /home/nkousuke/application/anaconda3/lib/python3.7/site-packages/pyscf

[CONFIG] conf_file /home/nkousuke/.pyscf_conf.py
[INPUT] verbose = 5
[INPUT] max_memory = 506305.6328125 
[INPUT] num. atoms = 1
[INPUT] num. electrons = 4
[INPUT] charge = 0
[INPUT] spin (= nelec alpha-beta = 2S) = 2
[INPUT] symmetry False subgroup None
[INPUT] Mole.unit = A
[INPUT]  1 Ge     0.000000000000   0.000000000000   0.000000000000 AA    0.000000000000   0.000000000000   0.000000000000 Bohr
[INPUT] ---------------- BASIS SET ---------------- 
[INPUT] l, kappa, [nprim/nctr], expnt,             c_1 c_2 ...
[INPUT] Ge
[INPUT] 0    0    [9    /1   ]  46.470485         -0.000229
                                20.357328         0.001574
                                8.917936          -0.011345
                                3.906681          0.098972
                                1.7114            -0.331545
                                0.749713          -0.094809
                                0.328427          0.438933
                                0.143874          0.596777
                                0.063027          0.186251
[INPUT] 0    0    [1    /1   ]  0.472336             1
[INPUT] 0    0    [1    /1   ]  0.198545             1
[INPUT] 0    0    [1    /1   ]  0.083458             1
[INPUT] 1    0    [9    /1   ]  22.641155         5.2e-05
                                10.174686         -0.000675
                                4.572392          0.011276
                                2.054783          -0.074628
                                0.923397          -0.01207
                                0.414964          0.216919
                                0.18648           0.438735
                                0.083802          0.385126
                                0.03766           0.108074
[INPUT] 1    0    [1    /1   ]  0.435049             1
[INPUT] 1    0    [1    /1   ]  0.164783             1
[INPUT] 1    0    [1    /1   ]  0.062415             1
[INPUT] 2    0    [1    /1   ]  0.505266             1
[INPUT] 2    0    [1    /1   ]  0.230692             1
[INPUT] 2    0    [1    /1   ]  0.105328             1
[INPUT] 3    0    [1    /1   ]  0.554284             1
[INPUT] 3    0    [1    /1   ]  0.221254             1
[INPUT] 4    0    [1    /1   ]  0.480349             1

nuclear repulsion = 0
number of shells = 14
number of NR pGTOs = 86
number of NR cGTOs = 54
basis = ccecp-ccpvqz
ecp = ccecp
CPU time:         5.73


******** <class 'pyscf.scf.rohf.ROHF'> ********
method = ROHF-RHF
initial guess = minao
damping factor = 0
level_shift factor = 0
DIIS = <class 'pyscf.scf.diis.CDIIS'>
diis_start_cycle = 1
diis_space = 8
SCF conv_tol = 1e-09
SCF conv_tol_grad = None
SCF max_cycles = 200
direct_scf = True
direct_scf_tol = 1e-13
chkfile to save SCF result = pyscf.chk
max_memory 506305 MB (current use 106 MB)
num. doubly occ = 1  num. singly occ = 2
Set gradient conv threshold to 3.16228e-05
E1 = -5.631447389141324  Ecoul = 2.189777113221588
init E= -3.44167027591974
cond(S) = 1325.2263473854282
    CPU time for initialize scf    103.33 sec, wall time      1.09 sec

WARN: HOMO -0.0687599969149302 >= LUMO -0.0687599969149303

                  Roothaan           | alpha              | beta
  Highest 2-occ = -0.563073959230924 | -0.563073959230924 | -0.563073959230924
  Lowest 0-occ =  -0.0687599969149303 | -0.0687599969149304 | -0.0687599969149304
  1-occ =         -0.0687599969149304 | -0.0687599969149305 | -0.0687599969149305
  1-occ =         -0.0687599969149302 | -0.0687599969149304 | -0.0687599969149304
  Roothaan mo_energy =
[-0.56307396 -0.06876    -0.06876    -0.06876     0.25534586  0.26249837
  0.26249837  0.26249837  0.26340372  0.26340372  0.26340372  0.26340372
  0.26340372  0.79026615  0.79026615  0.79026615  0.79026615  0.79026615
  0.81961243  0.81961243  0.81961243  0.81961243  0.81961243  0.81961243
  0.81961243  1.18396936  1.18396936  1.18396936  1.46842089  2.04031637
  2.04031637  2.04031637  2.04031637  2.04031637  2.30230934  2.30230934
  2.30230934  2.30230934  2.30230934  2.30230934  2.30230934  2.30230934
  2.30230934  2.31365166  2.31365166  2.31365166  2.31365166  2.31365166
  2.31365166  2.31365166  9.36190454  9.36190454  9.36190454 13.19435833]
E1 = -5.515368958263053  Ecoul = 1.8632020232679594
cycle= 1 E= -3.65216693499509  delta_E= -0.21  |g|= 0.0753  |ddm|= 1.03
    CPU time for cycle= 1     24.85 sec, wall time      0.20 sec
  HOMO = -0.136875078876816  LUMO = -0.0205837324511431
                  Roothaan           | alpha              | beta
  Highest 2-occ =  -0.60077880290907 | -0.667885019290604 | -0.533672586527537
  Lowest 0-occ =  -0.0205837324511431 | -0.0372506983758482 | -0.00391676652643754
  1-occ =         -0.136875078876816 | -0.297769117452379 | 0.0412008711252375
  1-occ =         -0.136875078876816 | -0.297769117452379 | 0.0412008711252374
  Roothaan mo_energy =
[-0.6007788  -0.13687508 -0.13687508 -0.02058373  0.23239711  0.24600723
  0.24659483  0.24659483  0.24687441  0.25144337  0.25144337  0.25641228
  0.25641228  0.75368436  0.75792781  0.75792781  0.77063639  0.77063639
  0.78459069  0.78717774  0.78717774  0.79529629  0.79529629  0.80864152
  0.80864152  1.1328305   1.15203203  1.15203203  1.42624372  1.98162715
  1.98717947  1.98717947  2.00500316  2.00500316  2.24580533  2.2479696
  2.2479696   2.25233     2.25448399  2.25448399  2.25556026  2.25556026
  2.2653419   2.2653419   2.26541387  2.26541387  2.28087079  2.28087079
  2.28185611  2.28185611  9.29018795  9.30324352  9.30324352 13.12684987]
E1 = -5.632140847771193  Ecoul = 1.9675271011407038
cycle= 2 E= -3.66461374663049  delta_E= -0.0124  |g|= 0.0211  |ddm|= 0.494
    CPU time for cycle= 2     32.75 sec, wall time      0.26 sec
  HOMO = -0.105683198328646  LUMO = 0.0041964443812431
                  Roothaan           | alpha              | beta
  Highest 2-occ = -0.565989275976849 | -0.640930731872079 | -0.487078157770824
  Lowest 0-occ =  0.0041964443812431 | -0.0110711967898694 | 0.0222059714162031
  1-occ =         -0.105683198328647 |  -0.28463496391785 | 0.0778400451905599
  1-occ =         -0.105683198328646 | -0.284634963917849 | 0.0778400451905601
  Roothaan mo_energy =
[-5.65989276e-01 -1.05683198e-01 -1.05683198e-01  4.19644438e-03
  2.48676370e-01  2.59582103e-01  2.59582103e-01  2.60310184e-01
  2.60310184e-01  2.62782449e-01  2.63737893e-01  2.66051387e-01
  2.66051387e-01  7.80393834e-01  7.84473384e-01  7.84473384e-01
  7.96731196e-01  7.96731196e-01  8.06684347e-01  8.09367506e-01
  8.09367506e-01  8.17861595e-01  8.17861595e-01  8.31810531e-01
  8.31810531e-01  1.16931008e+00  1.18834978e+00  1.18834978e+00
  1.46565390e+00  2.02581148e+00  2.03179452e+00  2.03179452e+00
  2.05115207e+00  2.05115207e+00  2.28402638e+00  2.28639688e+00
  2.28639688e+00  2.29353410e+00  2.29353410e+00  2.29704088e+00
  2.30060403e+00  2.30060403e+00  2.30551611e+00  2.30551611e+00
  2.31141556e+00  2.31141556e+00  2.32247889e+00  2.32247889e+00
  2.32968720e+00  2.32968720e+00  9.35055529e+00  9.36549969e+00
  9.36549969e+00  1.31929394e+01]
E1 = -5.631404573820566  Ecoul = 1.96653409942814
cycle= 3 E= -3.66487047439243  delta_E= -0.000257  |g|= 0.00616  |ddm|= 0.077
    CPU time for cycle= 3     16.88 sec, wall time      0.13 sec
  HOMO = -0.103545879378672  LUMO = 0.00561990985691305
                  Roothaan           | alpha              | beta
  Highest 2-occ =  -0.56289473611484 |  -0.64102417083768 | -0.486011582512022
  Lowest 0-occ =  0.00561990985691305 | -0.0111873537763028 | 0.0219980217597478
  1-occ =         -0.103545879378673 | -0.285657242355474 | 0.0783964090330806
  1-occ =         -0.103545879378672 | -0.285657242355474 |   0.07839640903308
  Roothaan mo_energy =
[-5.62894736e-01 -1.03545879e-01 -1.03545879e-01  5.61990986e-03
  2.50236756e-01  2.59154436e-01  2.59154436e-01  2.61508291e-01
  2.61508291e-01  2.64635695e-01  2.65105595e-01  2.67484688e-01
  2.67484688e-01  7.82057702e-01  7.86197441e-01  7.86197441e-01
  7.98543855e-01  7.98543855e-01  8.08444858e-01  8.11167736e-01
  8.11167736e-01  8.19819361e-01  8.19819361e-01  8.34012959e-01
  8.34012959e-01  1.17140461e+00  1.19065845e+00  1.19065845e+00
  1.46841998e+00  2.02789030e+00  2.03401025e+00  2.03401025e+00
  2.05382535e+00  2.05382535e+00  2.28643858e+00  2.28886385e+00
  2.28886385e+00  2.29616774e+00  2.29616774e+00  2.29926540e+00
  2.30291053e+00  2.30291053e+00  2.30843548e+00  2.30843548e+00
  2.31400425e+00  2.31400425e+00  2.32581505e+00  2.32581505e+00
  2.33274819e+00  2.33274819e+00  9.35200404e+00  9.36742006e+00
  9.36742006e+00  1.31947528e+01]
E1 = -5.631450833576888  Ecoul = 1.9665500126967181
cycle= 4 E= -3.66490082088017  delta_E= -3.03e-05  |g|= 0.000286  |ddm|= 0.0338
    CPU time for cycle= 4     36.35 sec, wall time      0.29 sec
  HOMO = -0.103792554638081  LUMO = 0.00540678216982102
                  Roothaan           | alpha              | beta
  Highest 2-occ =  -0.56312697507136 | -0.640888761695166 | -0.485312903504563
  Lowest 0-occ =  0.00540678216982102 | -0.011173612916288 | 0.0220362610915638
  1-occ =         -0.103792554638087 | -0.286074586771219 | 0.0785375844331441
  1-occ =         -0.103792554638081 | -0.286074586771221 | 0.0785375844331442
  Roothaan mo_energy =
[-5.63126975e-01 -1.03792555e-01 -1.03792555e-01  5.40678217e-03
  2.50105695e-01  2.59094365e-01  2.59094365e-01  2.61376885e-01
  2.61376885e-01  2.64481803e-01  2.64974673e-01  2.67343442e-01
  2.67343442e-01  7.81836640e-01  7.85970020e-01  7.85970020e-01
  7.98313494e-01  7.98313494e-01  8.08239042e-01  8.10961162e-01
  8.10961162e-01  8.19603965e-01  8.19603965e-01  8.33785591e-01
  8.33785591e-01  1.17112436e+00  1.19033481e+00  1.19033481e+00
  1.46810414e+00  2.02755525e+00  2.03366864e+00  2.03366864e+00
  2.05346365e+00  2.05346365e+00  2.28610879e+00  2.28853203e+00
  2.28853203e+00  2.29582951e+00  2.29582951e+00  2.29891411e+00
  2.30255720e+00  2.30255720e+00  2.30808552e+00  2.30808552e+00
  2.31363975e+00  2.31363975e+00  2.32544661e+00  2.32544661e+00
  2.33236561e+00  2.33236561e+00  9.35162562e+00  9.36703097e+00
  9.36703097e+00  1.31943478e+01]
E1 = -5.631383025332164  Ecoul = 1.9664821638135161
cycle= 5 E= -3.66490086151865  delta_E= -4.06e-08  |g|= 2.18e-05  |ddm|= 0.00192
    CPU time for cycle= 5     36.34 sec, wall time      0.28 sec
  HOMO = -0.103786998323323  LUMO = 0.00541427050274222
                  Roothaan           | alpha              | beta
  Highest 2-occ = -0.563115161608811 | -0.640904680047599 | -0.485332567208165
  Lowest 0-occ =  0.00541427050274222 | -0.0111922512938238 | 0.0220177213945738
  1-occ =         -0.103786998323328 | -0.286090725297179 | 0.0785175978347148
  1-occ =         -0.103786998323323 |  -0.28609072529718 | 0.0785175978347148
  Roothaan mo_energy =
[-5.63115162e-01 -1.03786998e-01 -1.03786998e-01  5.41427050e-03
  2.50115573e-01  2.59098762e-01  2.59098762e-01  2.61382725e-01
  2.61382725e-01  2.64490549e-01  2.64983864e-01  2.67349119e-01
  2.67349119e-01  7.81847609e-01  7.85980787e-01  7.85980787e-01
  7.98323471e-01  7.98323471e-01  8.08249108e-01  8.10971294e-01
  8.10971294e-01  8.19613678e-01  8.19613678e-01  8.33794963e-01
  8.33794963e-01  1.17113802e+00  1.19034887e+00  1.19034887e+00
  1.46811938e+00  2.02756980e+00  2.03368370e+00  2.03368370e+00
  2.05347935e+00  2.05347935e+00  2.28612320e+00  2.28854654e+00
  2.28854654e+00  2.29584430e+00  2.29584430e+00  2.29892917e+00
  2.30257240e+00  2.30257240e+00  2.30810074e+00  2.30810074e+00
  2.31365568e+00  2.31365568e+00  2.32546232e+00  2.32546232e+00
  2.33238233e+00  2.33238233e+00  9.35164138e+00  9.36704837e+00
  9.36704837e+00  1.31943654e+01]
E1 = -5.631390340611187  Ecoul = 1.966489478466325
cycle= 6 E= -3.66490086214486  delta_E= -6.26e-10  |g|= 2.48e-06  |ddm|= 0.00017
    CPU time for cycle= 6     33.78 sec, wall time      0.26 sec
  HOMO = -0.103785284824969  LUMO = 0.00541441273712102
                  Roothaan           | alpha              | beta
  Highest 2-occ = -0.563114323773678 | -0.640902162995593 | -0.485326484551763
  Lowest 0-occ =  0.00541441273712102 | -0.0111906491542711 | 0.0220194746285128
  1-occ =          -0.10378528482497 | -0.286091368068758 | 0.0785202895052573
  1-occ =         -0.103785284824969 | -0.286091368068758 | 0.0785202895052561
  Roothaan mo_energy =
[-5.63114324e-01 -1.03785285e-01 -1.03785285e-01  5.41441274e-03
  2.50115452e-01  2.59097385e-01  2.59097385e-01  2.61382918e-01
  2.61382918e-01  2.64490493e-01  2.64983849e-01  2.67349386e-01
  2.67349386e-01  7.81847648e-01  7.85980807e-01  7.85980807e-01
  7.98323389e-01  7.98323389e-01  8.08249253e-01  8.10971411e-01
  8.10971411e-01  8.19613839e-01  8.19613839e-01  8.33795135e-01
  8.33795135e-01  1.17113809e+00  1.19034881e+00  1.19034881e+00
  1.46811923e+00  2.02756992e+00  2.03368377e+00  2.03368377e+00
  2.05347937e+00  2.05347937e+00  2.28612340e+00  2.28854674e+00
  2.28854674e+00  2.29584448e+00  2.29584448e+00  2.29892931e+00
  2.30257253e+00  2.30257253e+00  2.30810089e+00  2.30810089e+00
  2.31365575e+00  2.31365575e+00  2.32546246e+00  2.32546246e+00
  2.33238237e+00  2.33238237e+00  9.35164143e+00  9.36704829e+00
  9.36704829e+00  1.31943654e+01]
E1 = -5.631388078275275  Ecoul = 1.9664872161192886
Extra cycle  E= -3.66490086215599  delta_E= -1.11e-11  |g|= 7.64e-07  |ddm|= 1.71e-05
    CPU time for scf_cycle    303.74 sec, wall time      2.66 sec
    CPU time for SCF    303.75 sec, wall time      2.66 sec
converged SCF energy = -3.66490086215599
