#INFO: **** input file is /home/nkousuke/lustre/toBeSync/turboRVB/05turbo-genius-development/turbogenius_paper/04data/sanity_checks/02pyscf_prep_LDA_via_trexio/00open_boundary/results/SO2/pyscf-LDA-workflow/run.py ****

from pyscf_wrapper import Pyscf_wrapper

# input variables
pyscf_chkfile="pyscf.chk"
structure_file="SO2.xyz"

# input variables
omp_num_threads=128
charge=0
spin=0
basis="ccecp-ccpvqz"
ecp="ccecp"
scf_method="DFT"
dft_xc="LDA_X,LDA_C_PZ"
solver_newton=False
MP2_flag=False
CCSD_flag=False
pyscf_output="out.pyscf"
twist_average=False
exp_to_discard=0.1
kpt=[0.0, 0.0, 0.0]
kpt_grid=[1, 1, 1]
smearing_method="fermi"
smearing_sigma=0.0

pyscf_calc=Pyscf_wrapper(
                        structure_file=structure_file,
                        chkfile=pyscf_chkfile,
                        )

pyscf_calc.run_pyscf(
                  omp_num_threads=omp_num_threads,
                  charge=charge,
                  spin=spin,
                  basis=basis,
                  ecp=ecp,
                  scf_method=scf_method,
                  dft_xc=dft_xc,
                  solver_newton=solver_newton,
                  MP2_flag=MP2_flag,
                  CCSD_flag=CCSD_flag,
                  pyscf_output=pyscf_output,
                  twist_average=twist_average,
                  exp_to_discard=exp_to_discard,
                  kpt=kpt,
                  kpt_grid=kpt_grid,
                  smearing_method=smearing_method,
                  smearing_sigma=smearing_sigma
                  )
                #INFO: ******************** input file end ********************


System: uname_result(system='Linux', node='spcc-278', release='5.4.0-66-generic', version='#74-Ubuntu SMP Wed Jan 27 22:54:38 UTC 2021', machine='x86_64', processor='x86_64')  Threads 128
Python 3.7.3 (default, Mar 27 2019, 22:11:17) 
[GCC 7.3.0]
numpy 1.20.1  scipy 1.7.3
Date: Thu Dec 22 07:20:27 2022
PySCF version 2.0.1
PySCF path  /home/nkousuke/application/anaconda3/lib/python3.7/site-packages/pyscf

[CONFIG] conf_file /home/nkousuke/.pyscf_conf.py
[INPUT] verbose = 5
[INPUT] max_memory = 507998.22265625 
[INPUT] num. atoms = 3
[INPUT] num. electrons = 18
[INPUT] charge = 0
[INPUT] spin (= nelec alpha-beta = 2S) = 0
[INPUT] symmetry False subgroup None
[INPUT] Mole.unit = A
[INPUT]  1 S      0.000000000000   0.000000000000   0.361830000000 AA    0.000000000000   0.000000000000   0.683759603651 Bohr
[INPUT]  2 O      0.000000000000   1.235920000000  -0.361830000000 AA    0.000000000000   2.335550311872  -0.683759603651 Bohr
[INPUT]  3 O      0.000000000000  -1.235920000000  -0.361830000000 AA    0.000000000000  -2.335550311872  -0.683759603651 Bohr
[INPUT] ---------------- BASIS SET ---------------- 
[INPUT] l, kappa, [nprim/nctr], expnt,             c_1 c_2 ...
[INPUT] S
[INPUT] 0    0    [10   /1   ]  14.05257          0.002102
                                7.864913          -0.011042
                                4.401818          0.086618
                                2.4636            -0.271004
                                1.378823          -0.151274
                                0.771696          0.136044
                                0.431901          0.39436
                                0.241726          0.432098
                                0.135289          0.230974
                                0.075718          0.051205
[INPUT] 0    0    [1    /1   ]  0.818729             1
[INPUT] 0    0    [1    /1   ]  0.332501             1
[INPUT] 0    0    [1    /1   ]  0.135035             1
[INPUT] 1    0    [10   /1   ]  6.808844          -0.003573
                                3.94156           0.001903
                                2.281723          -0.065016
                                1.320863          0.042305
                                0.764632          0.158772
                                0.442637          0.278172
                                0.256237          0.293821
                                0.148333          0.248015
                                0.085868          0.114905
                                0.049708          0.032934
[INPUT] 1    0    [1    /1   ]  2.088209             1
[INPUT] 1    0    [1    /1   ]  0.838124             1
[INPUT] 1    0    [1    /1   ]  0.33639              1
[INPUT] 2    0    [1    /1   ]  1.68189              1
[INPUT] 2    0    [1    /1   ]  0.613672             1
[INPUT] 2    0    [1    /1   ]  0.223911             1
[INPUT] 3    0    [1    /1   ]  0.898397             1
[INPUT] 3    0    [1    /1   ]  0.339271             1
[INPUT] 4    0    [1    /1   ]  0.691446             1
[INPUT] O
[INPUT] 0    0    [9    /1   ]  54.775216         -0.0012444
                                25.616801         0.010733
                                11.980245         0.0018889
                                6.992317          -0.1742537
                                2.620277          0.0017622
                                1.225429          0.3161846
                                0.577797          0.4512023
                                0.268022          0.3121534
                                0.125346          0.0511167
[INPUT] 0    0    [1    /1   ]  1.351771             1
[INPUT] 0    0    [1    /1   ]  0.843157             1
[INPUT] 0    0    [1    /1   ]  0.22438              1
[INPUT] 1    0    [9    /1   ]  22.217266         0.0104866
                                10.74755          0.0366435
                                5.315785          0.0803674
                                2.660761          0.162701
                                1.331816          0.2377791
                                0.678626          0.2811422
                                0.333673          0.2643189
                                0.167017          0.1466014
                                0.083598          0.0458145
[INPUT] 1    0    [1    /1   ]  1.106737             1
[INPUT] 1    0    [1    /1   ]  0.452364             1
[INPUT] 1    0    [1    /1   ]  0.148562             1
[INPUT] 2    0    [1    /1   ]  4.008867             1
[INPUT] 2    0    [1    /1   ]  1.344331             1
[INPUT] 2    0    [1    /1   ]  0.455711             1
[INPUT] 3    0    [1    /1   ]  2.763115             1
[INPUT] 3    0    [1    /1   ]  0.876289             1
[INPUT] 4    0    [1    /1   ]  1.759081             1

nuclear repulsion = 34.3100189431656
number of shells = 42
number of NR pGTOs = 262
number of NR cGTOs = 162
basis = ccecp-ccpvqz
ecp = ccecp
CPU time:         8.72


******** <class 'pyscf.df.df_jk.density_fit.<locals>.DFHF'> ********
method = DFHF-RKS-RHF
initial guess = minao
damping factor = 0
level_shift factor = 0
DIIS = <class 'pyscf.scf.diis.CDIIS'>
diis_start_cycle = 1
diis_space = 8
SCF conv_tol = 1e-09
SCF conv_tol_grad = None
SCF max_cycles = 200
direct_scf = True
direct_scf_tol = 1e-13
chkfile to save SCF result = pyscf.chk
max_memory 507998 MB (current use 105 MB)
XC library pyscf.dft.libxc version 5.1.7
    S. Lehtola, C. Steigemann, M. J. Oliveira, and M. A. Marques, SoftwareX 7, 1 (2018)
XC functionals = LDA_X,LDA_C_PZ
    P. A. M. Dirac, Math. Proc. Cambridge Philos. Soc. 26, 376 (1930)
    F. Bloch, Z. Phys. 57, 545 (1929)
    J. P. Perdew and A. Zunger, Phys. Rev. B 23, 5048 (1981)
radial grids: 
    Treutler-Ahlrichs [JCP 102, 346 (1995); DOI:10.1063/1.469408] (M4) radial grids
    
becke partition: Becke, JCP 88, 2547 (1988); DOI:10.1063/1.454033
pruning grids: <function nwchem_prune at 0x152b1742d730>
grids dens level: 3
symmetrized grids: False
atomic radii adjust function: <function treutler_atomic_radii_adjust at 0x152b1742d620>
small_rho_cutoff = 1e-07
Set gradient conv threshold to 3.16228e-05
atom S rad-grids = 80, ang-grids = [ 50  50  50  50  50  50  50  50  50  50  50  50  50  50  50  50  50  50
  50  50  50  50  50  50  86  86  86  86  86  86  86  86  86  86  86  86
  86 350 350 350 350 350 350 350 350 350 434 434 434 434 434 434 434 434
 434 434 434 434 434 434 434 434 434 434 350 350 350 350 350 350 350 350
 350 350 350 350 350 350 350 350]
atom O rad-grids = 75, ang-grids = [ 50  50  50  50  50  50  50  50  50  50  50  50  50  50  50  50  50  50
  50  50  50  50  86  86  86  86  86  86  86  86  86 266 266 266 266 266
 266 266 302 302 302 302 302 302 302 302 302 302 302 302 302 302 302 302
 302 302 302 266 266 266 266 266 266 266 266 266 266 266 266 266 266 266
 266 266 266]
tot grids = 47404
Drop grids 3191
    CPU time for setting up grids     38.21 sec, wall time      0.31 sec
nelec by numeric integration = 17.999998810312608
    CPU time for vxc     35.30 sec, wall time      0.28 sec
Even tempered Gaussians are generated as DF auxbasis for  S O
  ETB auxbasis for S  [[0, [19.383808, 1]], [0, [9.691904, 1]], [0, [4.845952, 1]], [0, [2.422976, 1]], [0, [1.211488, 1]], [0, [0.605744, 1]], [0, [0.302872, 1]], [0, [0.151436, 1]], [1, [15.705532909913755, 1]], [1, [7.852766454956877, 1]], [1, [3.9263832274784387, 1]], [1, [1.9631916137392194, 1]], [1, [0.9815958068696097, 1]], [1, [0.49079790343480484, 1]], [1, [0.24539895171740242, 1]], [1, [0.12269947585870121, 1]], [2, [12.725248, 1]], [2, [6.362624, 1]], [2, [3.181312, 1]], [2, [1.590656, 1]], [2, [0.795328, 1]], [2, [0.397664, 1]], [2, [0.198832, 1]], [2, [0.099416, 1]], [3, [6.751975124276451, 1]], [3, [3.3759875621382256, 1]], [3, [1.6879937810691128, 1]], [3, [0.8439968905345564, 1]], [3, [0.4219984452672782, 1]], [3, [0.2109992226336391, 1]], [4, [3.582576, 1]], [4, [1.791288, 1]], [4, [0.895644, 1]], [4, [0.447822, 1]]]
  ETB auxbasis for O  [[0, [64.177152, 1]], [0, [32.088576, 1]], [0, [16.044288, 1]], [0, [8.022144, 1]], [0, [4.011072, 1]], [0, [2.005536, 1]], [0, [1.002768, 1]], [0, [0.501384, 1]], [0, [0.250692, 1]], [1, [52.41108427692326, 1]], [1, [26.20554213846163, 1]], [1, [13.102771069230815, 1]], [1, [6.551385534615408, 1]], [1, [3.275692767307704, 1]], [1, [1.637846383653852, 1]], [1, [0.818923191826926, 1]], [1, [0.409461595913463, 1]], [1, [0.2047307979567315, 1]], [2, [42.802176, 1]], [2, [21.401088, 1]], [2, [10.700544, 1]], [2, [5.350272, 1]], [2, [2.675136, 1]], [2, [1.337568, 1]], [2, [0.668784, 1]], [2, [0.334392, 1]], [2, [0.167196, 1]], [3, [12.491732442583295, 1]], [3, [6.245866221291648, 1]], [3, [3.122933110645824, 1]], [3, [1.561466555322912, 1]], [3, [0.780733277661456, 1]], [3, [0.390366638830728, 1]], [4, [7.291376, 1]], [4, [3.645688, 1]], [4, [1.822844, 1]], [4, [0.911422, 1]]]
num shells = 108, num cGTOs = 468
    CPU time for df-vj     30.80 sec, wall time      0.25 sec
E1 = -135.7309230827229  Ecoul = 68.10340289157764  Exc = -8.82118016174674
init E= -42.1386814097264
cond(S) = 11045.671465921234
    CPU time for initialize scf    241.82 sec, wall time      2.09 sec
  HOMO = -0.341443288665932  LUMO = -0.167644795648122
  mo_energy =
[-1.13883152e+00 -1.06876139e+00 -6.34766342e-01 -5.38273575e-01
 -5.01571127e-01 -4.96628373e-01 -4.33329807e-01 -4.20942980e-01
 -3.41443289e-01 -1.67644796e-01 -1.32500846e-02  1.94643751e-02
  1.46519537e-01  1.73617212e-01  2.20901763e-01  2.21579492e-01
  2.39796678e-01  2.48143830e-01  2.65288743e-01  2.82716669e-01
  2.92532415e-01  3.30862121e-01  3.76066072e-01  4.02003957e-01
  4.10487076e-01  5.49950090e-01  6.35424011e-01  7.68011136e-01
  8.00761175e-01  8.26609209e-01  8.53270293e-01  8.77465599e-01
  9.52001003e-01  9.99517268e-01  1.00672471e+00  1.01482718e+00
  1.09848770e+00  1.09963954e+00  1.13196293e+00  1.16279097e+00
  1.19695744e+00  1.24085706e+00  1.29353392e+00  1.35915762e+00
  1.37879896e+00  1.39044150e+00  1.43738261e+00  1.46058686e+00
  1.47638749e+00  1.48849326e+00  1.54656365e+00  1.66553201e+00
  1.82555564e+00  1.99518506e+00  2.10029692e+00  2.11968153e+00
  2.12184893e+00  2.15212768e+00  2.23402462e+00  2.43743773e+00
  2.62558496e+00  2.64106806e+00  2.66421628e+00  2.67222804e+00
  2.69324960e+00  2.79341387e+00  2.81561903e+00  2.83450363e+00
  2.91635085e+00  2.94960721e+00  3.00322508e+00  3.01974322e+00
  3.04675205e+00  3.06867204e+00  3.21833100e+00  3.22224949e+00
  3.27094562e+00  3.33668912e+00  3.37828216e+00  3.41039067e+00
  3.42108586e+00  3.51405110e+00  3.55408661e+00  3.61353722e+00
  3.67273813e+00  3.69643753e+00  3.73557678e+00  3.75609652e+00
  3.80414863e+00  3.81602227e+00  3.88308190e+00  3.91594132e+00
  3.92985787e+00  4.01193483e+00  4.09854666e+00  4.10481819e+00
  4.18323768e+00  4.18920669e+00  4.26972211e+00  4.44485809e+00
  4.62345834e+00  4.74029989e+00  5.01206796e+00  5.04282466e+00
  5.15162321e+00  5.29739228e+00  6.03519781e+00  6.19853831e+00
  6.59090036e+00  6.60416517e+00  6.71554124e+00  6.73284166e+00
  7.62685951e+00  7.77209841e+00  8.17697159e+00  8.17919404e+00
  8.17986016e+00  8.18830406e+00  8.19394187e+00  8.20991083e+00
  8.22986275e+00  8.29296983e+00  8.29963736e+00  8.35584043e+00
  8.38150379e+00  8.48235541e+00  8.50604353e+00  8.55820183e+00
  8.66220924e+00  8.79671659e+00  8.87143494e+00  9.00443834e+00
  9.05542905e+00  9.27885113e+00  9.84101322e+00  1.09501026e+01
  1.09601107e+01  1.09737796e+01  1.09828603e+01  1.11707367e+01
  1.11988519e+01  1.12508249e+01  1.12980256e+01  1.17033655e+01
  1.17248594e+01  1.17377349e+01  1.17495438e+01  1.18094240e+01
  1.20011550e+01  1.21214950e+01  1.21864403e+01  1.21946858e+01
  1.22258531e+01  1.24077205e+01  1.24398133e+01  1.24787273e+01
  1.25503501e+01  1.29455421e+01  1.30410177e+01  1.51587300e+01
  3.18241976e+01  3.18448932e+01]
nelec by numeric integration = 17.999998777685523
    CPU time for vxc     37.05 sec, wall time      0.29 sec
    CPU time for df-vj      3.07 sec, wall time      0.02 sec
E1 = -138.4009274199844  Ecoul = 71.78615739167071  Exc = -9.51755137891479
cycle= 1 E= -41.8223024640629  delta_E= 0.316  |g|= 1.18  |ddm|= 3.51
    CPU time for cycle= 1     86.20 sec, wall time      0.67 sec
  HOMO = -0.168727168519728  LUMO = -0.0913038175010005
  mo_energy =
[-1.01856134e+00 -8.46745353e-01 -5.81909296e-01 -4.79260578e-01
 -3.56078437e-01 -2.96936302e-01 -1.98260207e-01 -1.79997983e-01
 -1.68727169e-01 -9.13038175e-02 -9.66113971e-03  5.60606531e-02
  1.43514574e-01  1.53280180e-01  2.14996762e-01  2.16078813e-01
  2.41921462e-01  2.56906650e-01  2.91207622e-01  3.41568393e-01
  3.77315483e-01  3.80061134e-01  4.00784516e-01  4.34147895e-01
  4.85831857e-01  5.62134231e-01  6.48424989e-01  7.89559173e-01
  8.18759482e-01  8.59883662e-01  8.95131652e-01  9.16394563e-01
  9.24415923e-01  9.32920596e-01  9.62789521e-01  1.05295951e+00
  1.06966764e+00  1.07828685e+00  1.08009693e+00  1.20939150e+00
  1.23783758e+00  1.24886848e+00  1.32934867e+00  1.42960265e+00
  1.45981757e+00  1.50302188e+00  1.52109096e+00  1.57722843e+00
  1.58930115e+00  1.59331982e+00  1.67298651e+00  1.69299169e+00
  1.76478829e+00  2.12391240e+00  2.13872800e+00  2.16114940e+00
  2.19015089e+00  2.25541325e+00  2.28784130e+00  2.51837509e+00
  2.62317764e+00  2.63762777e+00  2.64543032e+00  2.69566039e+00
  2.69801047e+00  2.75753955e+00  2.79826202e+00  2.82162353e+00
  2.86704554e+00  2.87026398e+00  3.01238157e+00  3.06896988e+00
  3.10090584e+00  3.14399160e+00  3.17992096e+00  3.22670459e+00
  3.27901991e+00  3.31630018e+00  3.33827912e+00  3.44892146e+00
  3.45207032e+00  3.52902336e+00  3.56078688e+00  3.56578333e+00
  3.72955566e+00  3.76972519e+00  3.79507616e+00  3.94300020e+00
  3.94560650e+00  3.98272245e+00  4.11443601e+00  4.11584601e+00
  4.18041824e+00  4.21262293e+00  4.22774850e+00  4.28511003e+00
  4.37634941e+00  4.43699775e+00  4.48405267e+00  4.66599454e+00
  4.78941245e+00  4.88752220e+00  5.07715842e+00  5.10848252e+00
  5.17550610e+00  5.34067548e+00  6.22655192e+00  6.41264458e+00
  6.98140163e+00  6.99621466e+00  7.11470923e+00  7.12595759e+00
  7.94613901e+00  8.07386298e+00  8.11518390e+00  8.44033984e+00
  8.44525537e+00  8.45127474e+00  8.45918746e+00  8.46185162e+00
  8.46438474e+00  8.49551530e+00  8.51031763e+00  8.58415251e+00
  8.60853657e+00  8.63979906e+00  8.75505535e+00  8.77293648e+00
  8.90848130e+00  9.00881303e+00  9.10753891e+00  9.21665895e+00
  9.24302815e+00  9.37813734e+00  9.87627445e+00  1.13439093e+01
  1.13535602e+01  1.13686066e+01  1.13773396e+01  1.15595246e+01
  1.15857291e+01  1.16400406e+01  1.16873027e+01  1.20597847e+01
  1.21001333e+01  1.21231989e+01  1.21240462e+01  1.21933483e+01
  1.23620511e+01  1.25836801e+01  1.26457777e+01  1.26576187e+01
  1.26837925e+01  1.28590154e+01  1.28891389e+01  1.29315070e+01
  1.29975828e+01  1.33596965e+01  1.34499034e+01  1.50062602e+01
  3.24104569e+01  3.24311693e+01]
nelec by numeric integration = 17.999998896134098
    CPU time for vxc     40.59 sec, wall time      0.32 sec
    CPU time for df-vj      7.56 sec, wall time      0.06 sec
E1 = -131.50855117098834  Ecoul = 65.03631560645005  Exc = -8.134085408559477
cycle= 2 E= -40.2963020299321  delta_E= 1.53  |g|= 2.91  |ddm|= 5.47
    CPU time for cycle= 2    103.85 sec, wall time      0.82 sec
  HOMO = -0.282316838424452  LUMO = -0.148948763798251
  mo_energy =
[-1.06423126e+00 -9.67586404e-01 -5.69879221e-01 -4.52263710e-01
 -4.38679008e-01 -4.32693865e-01 -3.37444961e-01 -3.12691893e-01
 -2.82316838e-01 -1.48948764e-01  1.13661502e-03  4.14550618e-02
  1.69812705e-01  1.98942677e-01  2.03171327e-01  2.14846851e-01
  2.44001311e-01  2.51771133e-01  2.98310679e-01  3.08390511e-01
  3.14433138e-01  3.31981894e-01  3.85796130e-01  4.08185703e-01
  4.34912474e-01  5.74264843e-01  6.50954315e-01  8.06413237e-01
  8.08157660e-01  8.47706213e-01  8.64432021e-01  8.97300055e-01
  9.72059088e-01  9.82868996e-01  1.00417911e+00  1.04251393e+00
  1.10204511e+00  1.10328486e+00  1.11227042e+00  1.20043708e+00
  1.20052721e+00  1.24772104e+00  1.30318371e+00  1.39588760e+00
  1.40909116e+00  1.43738612e+00  1.49187857e+00  1.49267724e+00
  1.52612062e+00  1.53521080e+00  1.59717662e+00  1.67406597e+00
  1.82988985e+00  2.03727549e+00  2.11715962e+00  2.15113667e+00
  2.15864206e+00  2.18678583e+00  2.25451779e+00  2.47565201e+00
  2.64495456e+00  2.66577796e+00  2.67071298e+00  2.68712520e+00
  2.69449393e+00  2.79893597e+00  2.83350088e+00  2.85468353e+00
  2.93250286e+00  2.95151000e+00  3.05865710e+00  3.05946713e+00
  3.06643535e+00  3.08757893e+00  3.22378519e+00  3.23539479e+00
  3.29540615e+00  3.31677294e+00  3.38007612e+00  3.44121903e+00
  3.44235020e+00  3.55129103e+00  3.55909805e+00  3.61982810e+00
  3.70571850e+00  3.76716730e+00  3.77579037e+00  3.79349804e+00
  3.86770271e+00  3.87854768e+00  3.95808991e+00  3.97244416e+00
  4.01213209e+00  4.09160561e+00  4.16795927e+00  4.18000666e+00
  4.23374088e+00  4.27475916e+00  4.34449235e+00  4.52566431e+00
  4.69237680e+00  4.80798464e+00  5.05897315e+00  5.06541832e+00
  5.17309869e+00  5.33272031e+00  6.11371351e+00  6.28374030e+00
  6.72872331e+00  6.74264663e+00  6.85919469e+00  6.87510117e+00
  7.74905542e+00  7.89078942e+00  8.22478404e+00  8.27061972e+00
  8.27378831e+00  8.28368139e+00  8.28411342e+00  8.29217474e+00
  8.32742146e+00  8.35792923e+00  8.38959677e+00  8.44786847e+00
  8.44910016e+00  8.55823182e+00  8.60439181e+00  8.64384952e+00
  8.75813565e+00  8.88790436e+00  8.96529726e+00  9.10297241e+00
  9.12172064e+00  9.32949031e+00  9.88470243e+00  1.10890249e+01
  1.10989946e+01  1.11142679e+01  1.11226739e+01  1.13129352e+01
  1.13396464e+01  1.13922593e+01  1.14393457e+01  1.18407043e+01
  1.18609017e+01  1.18821097e+01  1.18853274e+01  1.19528165e+01
  1.21362634e+01  1.22861519e+01  1.23500324e+01  1.23594422e+01
  1.23894551e+01  1.25717354e+01  1.26027269e+01  1.26456512e+01
  1.27172712e+01  1.31024395e+01  1.31966721e+01  1.51475102e+01
  3.20367100e+01  3.20574360e+01]
nelec by numeric integration = 17.99999883316245
    CPU time for vxc     35.19 sec, wall time      0.28 sec
    CPU time for df-vj      8.13 sec, wall time      0.06 sec
E1 = -136.2531074369129  Ecoul = 68.80795689188838  Exc = -8.947274006259454
cycle= 3 E= -42.0824056081183  delta_E= -1.79  |g|= 0.202  |ddm|= 4.35
    CPU time for cycle= 3    114.39 sec, wall time      0.90 sec
  HOMO = -0.305563906047504  LUMO = -0.168631298378366
  mo_energy =
[-1.08031557e+00 -9.88136081e-01 -5.90974499e-01 -4.64673953e-01
 -4.55074513e-01 -4.51029287e-01 -3.56089836e-01 -3.31328226e-01
 -3.05563906e-01 -1.68631298e-01 -9.83839489e-03  1.96799210e-02
  1.68033957e-01  1.88142354e-01  1.97092385e-01  1.99333006e-01
  2.38544312e-01  2.49619067e-01  2.92522920e-01  2.93926178e-01
  3.09560334e-01  3.27553151e-01  3.81272738e-01  4.02745855e-01
  4.30894242e-01  5.50583022e-01  6.38400276e-01  7.98454468e-01
  8.00086034e-01  8.41845291e-01  8.62371389e-01  8.91372709e-01
  9.60014931e-01  9.72584347e-01  9.92499838e-01  1.03099315e+00
  1.09417358e+00  1.09437484e+00  1.10231234e+00  1.18951737e+00
  1.19353170e+00  1.23821270e+00  1.29493301e+00  1.38845030e+00
  1.40436414e+00  1.43092295e+00  1.48403480e+00  1.48491452e+00
  1.51358696e+00  1.52121933e+00  1.58612088e+00  1.66146949e+00
  1.80344220e+00  2.02535104e+00  2.10323127e+00  2.13878895e+00
  2.14567772e+00  2.17260072e+00  2.24611406e+00  2.46254807e+00
  2.63936057e+00  2.65856129e+00  2.66307762e+00  2.68125800e+00
  2.68494334e+00  2.78792058e+00  2.81810924e+00  2.83699099e+00
  2.91871734e+00  2.93682170e+00  3.04268866e+00  3.05248478e+00
  3.05929373e+00  3.06990469e+00  3.20525908e+00  3.22392039e+00
  3.28344935e+00  3.30166130e+00  3.35959641e+00  3.43259106e+00
  3.43364481e+00  3.53439528e+00  3.54408270e+00  3.60253900e+00
  3.68840812e+00  3.75290372e+00  3.75608614e+00  3.77709559e+00
  3.85056271e+00  3.86471865e+00  3.93963910e+00  3.96186654e+00
  3.99918299e+00  4.07503965e+00  4.15711665e+00  4.16370809e+00
  4.21800303e+00  4.25977513e+00  4.33313753e+00  4.51172221e+00
  4.67513928e+00  4.78916920e+00  5.04763664e+00  5.05236626e+00
  5.15865815e+00  5.31525704e+00  6.09082828e+00  6.26258367e+00
  6.69768311e+00  6.71133259e+00  6.82859861e+00  6.84445595e+00
  7.71986399e+00  7.86359622e+00  8.20507441e+00  8.25943024e+00
  8.26223270e+00  8.27157089e+00  8.27183814e+00  8.27877499e+00
  8.31344880e+00  8.34297904e+00  8.37474143e+00  8.43059767e+00
  8.43711260e+00  8.54134449e+00  8.58910064e+00  8.63056390e+00
  8.74299641e+00  8.86765768e+00  8.94821252e+00  9.08885522e+00
  9.10378357e+00  9.30843465e+00  9.85990159e+00  1.10629195e+01
  1.10728167e+01  1.10876861e+01  1.10964192e+01  1.12860337e+01
  1.13133106e+01  1.13661618e+01  1.14138457e+01  1.18140598e+01
  1.18350745e+01  1.18572123e+01  1.18591641e+01  1.19280838e+01
  1.21110254e+01  1.22502306e+01  1.23148095e+01  1.23238543e+01
  1.23538815e+01  1.25354808e+01  1.25667143e+01  1.26113778e+01
  1.26816656e+01  1.30680716e+01  1.31615079e+01  1.51265791e+01
  3.19838489e+01  3.20045402e+01]
nelec by numeric integration = 17.999998811798925
    CPU time for vxc     39.24 sec, wall time      0.31 sec
    CPU time for df-vj      8.14 sec, wall time      0.06 sec
E1 = -136.65026199858107  Ecoul = 69.29585018526993  Exc = -9.044446261474087
cycle= 4 E= -42.0888391316196  delta_E= -0.00643  |g|= 0.0426  |ddm|= 0.39
    CPU time for cycle= 4     97.85 sec, wall time      0.77 sec
  HOMO = -0.299251756755461  LUMO = -0.162869898374021
  mo_energy =
[-1.07578396e+00 -9.83080950e-01 -5.84579429e-01 -4.60667519e-01
 -4.49942324e-01 -4.46749336e-01 -3.52177032e-01 -3.26856016e-01
 -2.99251757e-01 -1.62869898e-01 -6.14108017e-03  2.66471337e-02
  1.68813741e-01  1.91451655e-01  2.00284595e-01  2.04866436e-01
  2.40853368e-01  2.51209224e-01  2.94094452e-01  2.98671728e-01
  3.11191806e-01  3.29514376e-01  3.83111065e-01  4.04799253e-01
  4.32304717e-01  5.58030863e-01  6.42902657e-01  8.01033502e-01
  8.03667140e-01  8.44728992e-01  8.63114936e-01  8.94321019e-01
  9.64584773e-01  9.77092611e-01  9.97504944e-01  1.03483489e+00
  1.09780478e+00  1.09823718e+00  1.10684830e+00  1.19375540e+00
  1.19620412e+00  1.24207658e+00  1.29820533e+00  1.39095932e+00
  1.40658882e+00  1.43280605e+00  1.48607899e+00  1.48714922e+00
  1.51700145e+00  1.52567750e+00  1.58911104e+00  1.66577721e+00
  1.81254705e+00  2.02883444e+00  2.10785143e+00  2.14353002e+00
  2.15009550e+00  2.17725044e+00  2.24953035e+00  2.46655643e+00
  2.64236180e+00  2.66116353e+00  2.66699591e+00  2.68455043e+00
  2.68898287e+00  2.79258904e+00  2.82396823e+00  2.84357944e+00
  2.92415174e+00  2.94297730e+00  3.04908667e+00  3.05518681e+00
  3.06221947e+00  3.07594518e+00  3.21213028e+00  3.22852736e+00
  3.28789140e+00  3.30788602e+00  3.36699998e+00  3.43626610e+00
  3.43675353e+00  3.54008182e+00  3.55003684e+00  3.60905950e+00
  3.69388775e+00  3.75827332e+00  3.76250105e+00  3.78072436e+00
  3.85560335e+00  3.86921913e+00  3.94398724e+00  3.96479831e+00
  4.00238350e+00  4.07952215e+00  4.15995788e+00  4.16824006e+00
  4.22275627e+00  4.26320892e+00  4.33617707e+00  4.51576604e+00
  4.67986450e+00  4.79444506e+00  5.05189046e+00  5.05713769e+00
  5.16396921e+00  5.32123131e+00  6.09664533e+00  6.26778017e+00
  6.70281700e+00  6.71657681e+00  6.83398072e+00  6.84991567e+00
  7.72592189e+00  7.86912171e+00  8.21228801e+00  8.26231619e+00
  8.26518256e+00  8.27470564e+00  8.27515581e+00  8.28238035e+00
  8.31707073e+00  8.34730684e+00  8.37917175e+00  8.43548090e+00
  8.44020830e+00  8.54625287e+00  8.59341713e+00  8.63463813e+00
  8.74707093e+00  8.87320537e+00  8.95227673e+00  9.09257274e+00
  9.10883084e+00  9.31524907e+00  9.86794479e+00  1.10678409e+01
  1.10777180e+01  1.10927884e+01  1.11014224e+01  1.12913079e+01
  1.13183167e+01  1.13712195e+01  1.14186169e+01  1.18195010e+01
  1.18398966e+01  1.18624545e+01  1.18640487e+01  1.19332606e+01
  1.21162889e+01  1.22562524e+01  1.23207536e+01  1.23298666e+01
  1.23600379e+01  1.25415869e+01  1.25728149e+01  1.26175482e+01
  1.26884046e+01  1.30744547e+01  1.31681335e+01  1.51351859e+01
  3.19918524e+01  3.20125612e+01]
nelec by numeric integration = 17.99999881606645
    CPU time for vxc     37.79 sec, wall time      0.32 sec
    CPU time for df-vj      8.26 sec, wall time      0.07 sec
E1 = -136.6024695024705  Ecoul = 69.2352843076913  Exc = -9.03216654162809
cycle= 5 E= -42.0893327932417  delta_E= -0.000494  |g|= 0.00319  |ddm|= 0.088
    CPU time for cycle= 5     93.35 sec, wall time      0.76 sec
  HOMO = -0.299121527577393  LUMO = -0.162694003819327
  mo_energy =
[-1.07570350e+00 -9.83059440e-01 -5.84469393e-01 -4.60592044e-01
 -4.49972549e-01 -4.46833820e-01 -3.52187002e-01 -3.26972661e-01
 -2.99121528e-01 -1.62694004e-01 -5.99541482e-03  2.68104632e-02
  1.68723117e-01  1.91446171e-01  2.00399415e-01  2.05106639e-01
  2.40901713e-01  2.51197530e-01  2.93996649e-01  2.98770871e-01
  3.11135749e-01  3.29485842e-01  3.83103180e-01  4.04803050e-01
  4.32191070e-01  5.58243872e-01  6.43006905e-01  8.00914226e-01
  8.03768153e-01  8.44817207e-01  8.63035187e-01  8.94297630e-01
  9.64674138e-01  9.77263918e-01  9.97638786e-01  1.03487339e+00
  1.09786351e+00  1.09832966e+00  1.10700410e+00  1.19386992e+00
  1.19618423e+00  1.24213073e+00  1.29821964e+00  1.39091405e+00
  1.40645324e+00  1.43268238e+00  1.48596336e+00  1.48712826e+00
  1.51697684e+00  1.52558114e+00  1.58907624e+00  1.66589012e+00
  1.81290310e+00  2.02882737e+00  2.10795836e+00  2.14356820e+00
  2.15012225e+00  2.17724011e+00  2.24958831e+00  2.46657460e+00
  2.64240220e+00  2.66112414e+00  2.66714470e+00  2.68469233e+00
  2.68905134e+00  2.79268775e+00  2.82408657e+00  2.84375084e+00
  2.92430376e+00  2.94318011e+00  3.04924862e+00  3.05504180e+00
  3.06213252e+00  3.07613173e+00  3.21236258e+00  3.22859978e+00
  3.28798515e+00  3.30807634e+00  3.36726126e+00  3.43631206e+00
  3.43681114e+00  3.54018344e+00  3.55019273e+00  3.60926648e+00
  3.69396057e+00  3.75842287e+00  3.76264035e+00  3.78060332e+00
  3.85558802e+00  3.86910379e+00  3.94397948e+00  3.96472913e+00
  4.00220515e+00  4.07946178e+00  4.15996912e+00  4.16819563e+00
  4.22263987e+00  4.26308439e+00  4.33610152e+00  4.51554663e+00
  4.67988872e+00  4.79449151e+00  5.05181825e+00  5.05719370e+00
  5.16405855e+00  5.32134151e+00  6.09668353e+00  6.26774800e+00
  6.70288649e+00  6.71664293e+00  6.83397613e+00  6.84991943e+00
  7.72597979e+00  7.86918881e+00  8.21251130e+00  8.26213525e+00
  8.26500707e+00  8.27453337e+00  8.27499771e+00  8.28221821e+00
  8.31693405e+00  8.34722448e+00  8.37908325e+00  8.43555627e+00
  8.44008059e+00  8.54627514e+00  8.59328583e+00  8.63455052e+00
  8.74696954e+00  8.87319157e+00  8.95227282e+00  9.09252769e+00
  9.10888897e+00  9.31539078e+00  9.86817084e+00  1.10677759e+01
  1.10776642e+01  1.10927196e+01  1.11013576e+01  1.12912306e+01
  1.13182754e+01  1.13711512e+01  1.14185893e+01  1.18194531e+01
  1.18398388e+01  1.18623334e+01  1.18639957e+01  1.19331208e+01
  1.21161963e+01  1.22562875e+01  1.23207848e+01  1.23298861e+01
  1.23600297e+01  1.25416617e+01  1.25728799e+01  1.26175617e+01
  1.26883816e+01  1.30745151e+01  1.31682074e+01  1.51355275e+01
  3.19920950e+01  3.20128009e+01]
nelec by numeric integration = 17.999998815880705
    CPU time for vxc     37.91 sec, wall time      0.30 sec
    CPU time for df-vj      7.81 sec, wall time      0.06 sec
E1 = -136.6020972750764  Ecoul = 69.23494113987026  Exc = -9.032197873540982
cycle= 6 E= -42.0893350655815  delta_E= -2.27e-06  |g|= 0.00101  |ddm|= 0.00542
    CPU time for cycle= 6    104.14 sec, wall time      0.82 sec
  HOMO = -0.299274761023548  LUMO = -0.162808995244096
  mo_energy =
[-1.07588060e+00 -9.83240390e-01 -5.84605721e-01 -4.60716428e-01
 -4.50112831e-01 -4.46990962e-01 -3.52335161e-01 -3.27141765e-01
 -2.99274761e-01 -1.62808995e-01 -6.11107723e-03  2.67238153e-02
  1.68644529e-01  1.91382407e-01  2.00327946e-01  2.05047186e-01
  2.40819463e-01  2.51106182e-01  2.93894708e-01  2.98686465e-01
  3.11067952e-01  3.29425290e-01  3.83033874e-01  4.04750192e-01
  4.32122882e-01  5.58143342e-01  6.42910820e-01  8.00846357e-01
  8.03676649e-01  8.44734858e-01  8.62943151e-01  8.94201147e-01
  9.64572157e-01  9.77177337e-01  9.97543675e-01  1.03476564e+00
  1.09777725e+00  1.09822857e+00  1.10691765e+00  1.19378810e+00
  1.19606415e+00  1.24203889e+00  1.29814382e+00  1.39081895e+00
  1.40637091e+00  1.43258094e+00  1.48587715e+00  1.48704594e+00
  1.51687195e+00  1.52548927e+00  1.58897004e+00  1.66578435e+00
  1.81279379e+00  2.02871989e+00  2.10785753e+00  2.14345268e+00
  2.14999791e+00  2.17713615e+00  2.24946457e+00  2.46647850e+00
  2.64227648e+00  2.66102139e+00  2.66702808e+00  2.68457722e+00
  2.68890870e+00  2.79257055e+00  2.82396376e+00  2.84363569e+00
  2.92418014e+00  2.94305859e+00  3.04912945e+00  3.05492747e+00
  3.06201775e+00  3.07598686e+00  3.21224463e+00  3.22848865e+00
  3.28785849e+00  3.30798453e+00  3.36715643e+00  3.43616911e+00
  3.43667607e+00  3.54005603e+00  3.55007735e+00  3.60914388e+00
  3.69383534e+00  3.75828341e+00  3.76250781e+00  3.78044460e+00
  3.85544236e+00  3.86898507e+00  3.94383288e+00  3.96459686e+00
  4.00207135e+00  4.07931161e+00  4.15983308e+00  4.16804395e+00
  4.22252981e+00  4.26295428e+00  4.33594784e+00  4.51541266e+00
  4.67973411e+00  4.79433694e+00  5.05168015e+00  5.05707679e+00
  5.16393879e+00  5.32120423e+00  6.09653683e+00  6.26759909e+00
  6.70270373e+00  6.71645992e+00  6.83377723e+00  6.84972117e+00
  7.72579815e+00  7.86900296e+00  8.21236892e+00  8.26197809e+00
  8.26485089e+00  8.27437642e+00  8.27484098e+00  8.28206079e+00
  8.31677545e+00  8.34706862e+00  8.37892420e+00  8.43539125e+00
  8.43991604e+00  8.54611075e+00  8.59311985e+00  8.63437236e+00
  8.74680569e+00  8.87302880e+00  8.95210943e+00  9.09233590e+00
  9.10872658e+00  9.31521712e+00  9.86800345e+00  1.10675787e+01
  1.10774663e+01  1.10925232e+01  1.11011598e+01  1.12910383e+01
  1.13180765e+01  1.13709581e+01  1.14183856e+01  1.18192621e+01
  1.18396595e+01  1.18621323e+01  1.18638173e+01  1.19329245e+01
  1.21160108e+01  1.22560741e+01  1.23205710e+01  1.23296751e+01
  1.23598235e+01  1.25414558e+01  1.25726754e+01  1.26173398e+01
  1.26881689e+01  1.30743039e+01  1.31679966e+01  1.51353730e+01
  3.19918503e+01  3.20125567e+01]
nelec by numeric integration = 17.999998815871553
    CPU time for vxc     39.34 sec, wall time      0.31 sec
    CPU time for df-vj      4.53 sec, wall time      0.04 sec
E1 = -136.6046860290819  Ecoul = 69.23803415259583  Exc = -9.032702315312125
cycle= 7 E= -42.0893352486326  delta_E= -1.83e-07  |g|= 0.000164  |ddm|= 0.00163
    CPU time for cycle= 7     96.77 sec, wall time      0.78 sec
  HOMO = -0.299248070716586  LUMO = -0.162782179024447
  mo_energy =
[-1.07584023e+00 -9.83203252e-01 -5.84579313e-01 -4.60685478e-01
 -4.50082834e-01 -4.46964555e-01 -3.52307236e-01 -3.27113275e-01
 -2.99248071e-01 -1.62782179e-01 -6.08552159e-03  2.67432871e-02
  1.68657586e-01  1.91393285e-01  2.00349779e-01  2.05060588e-01
  2.40837057e-01  2.51129270e-01  2.93911867e-01  2.98706249e-01
  3.11077716e-01  3.29439275e-01  3.83045363e-01  4.04760211e-01
  4.32133983e-01  5.58165163e-01  6.42934897e-01  8.00858651e-01
  8.03695267e-01  8.44753087e-01  8.62958012e-01  8.94225183e-01
  9.64596580e-01  9.77202531e-01  9.97572717e-01  1.03478706e+00
  1.09780016e+00  1.09825300e+00  1.10694227e+00  1.19380574e+00
  1.19608602e+00  1.24205978e+00  1.29816042e+00  1.39083675e+00
  1.40638640e+00  1.43259594e+00  1.48589163e+00  1.48706200e+00
  1.51689139e+00  1.52550784e+00  1.58898737e+00  1.66581264e+00
  1.81281943e+00  2.02874222e+00  2.10788161e+00  2.14348048e+00
  2.15002264e+00  2.17715581e+00  2.24949393e+00  2.46649682e+00
  2.64230870e+00  2.66104469e+00  2.66705707e+00  2.68460596e+00
  2.68894273e+00  2.79260558e+00  2.82399773e+00  2.84366504e+00
  2.92421098e+00  2.94309067e+00  3.04915919e+00  3.05494698e+00
  3.06203960e+00  3.07602266e+00  3.21227432e+00  3.22851193e+00
  3.28788311e+00  3.30801317e+00  3.36718368e+00  3.43620283e+00
  3.43670925e+00  3.54008245e+00  3.55010734e+00  3.60918115e+00
  3.69386602e+00  3.75831973e+00  3.76253597e+00  3.78047005e+00
  3.85547196e+00  3.86900782e+00  3.94386149e+00  3.96461861e+00
  4.00209253e+00  4.07934061e+00  4.15985664e+00  4.16807598e+00
  4.22255321e+00  4.26297723e+00  4.33597086e+00  4.51543632e+00
  4.67976779e+00  4.79437319e+00  5.05171291e+00  5.05710755e+00
  5.16397116e+00  5.32123427e+00  6.09656541e+00  6.26762860e+00
  6.70273580e+00  6.71649182e+00  6.83380996e+00  6.84975393e+00
  7.72583249e+00  7.86903928e+00  8.21241265e+00  8.26200344e+00
  8.26487558e+00  8.27440072e+00  8.27486626e+00  8.28208573e+00
  8.31680148e+00  8.34709717e+00  8.37895331e+00  8.43542822e+00
  8.43994493e+00  8.54614898e+00  8.59314853e+00  8.63440593e+00
  8.74683527e+00  8.87306173e+00  8.95214244e+00  9.09237041e+00
  9.10876401e+00  9.31525809e+00  9.86805101e+00  1.10676101e+01
  1.10774976e+01  1.10925544e+01  1.11011910e+01  1.12910704e+01
  1.13181092e+01  1.13709889e+01  1.14184174e+01  1.18192955e+01
  1.18396898e+01  1.18621633e+01  1.18638478e+01  1.19329559e+01
  1.21160419e+01  1.22561097e+01  1.23206058e+01  1.23297098e+01
  1.23598584e+01  1.25414920e+01  1.25727116e+01  1.26173772e+01
  1.26882058e+01  1.30743418e+01  1.31680360e+01  1.51354305e+01
  3.19918942e+01  3.20126005e+01]
nelec by numeric integration = 17.99999881589589
    CPU time for vxc     37.80 sec, wall time      0.30 sec
    CPU time for df-vj      8.27 sec, wall time      0.07 sec
E1 = -136.6042285276485  Ecoul = 69.23750867630557  Exc = -9.032634345955804
cycle= 8 E= -42.0893352541331  delta_E= -5.5e-09  |g|= 7.73e-05  |ddm|= 0.000317
    CPU time for cycle= 8    115.08 sec, wall time      1.06 sec
  HOMO = -0.299246959602717  LUMO = -0.162780884923748
  mo_energy =
[-1.07584156e+00 -9.83205744e-01 -5.84576991e-01 -4.60685728e-01
 -4.50082190e-01 -4.46965889e-01 -3.52310106e-01 -3.27115172e-01
 -2.99246960e-01 -1.62780885e-01 -6.08438543e-03  2.67462692e-02
  1.68657385e-01  1.91394411e-01  2.00351662e-01  2.05064594e-01
  2.40837836e-01  2.51129866e-01  2.93911432e-01  2.98707113e-01
  3.11078200e-01  3.29439856e-01  3.83046496e-01  4.04760873e-01
  4.32133879e-01  5.58168501e-01  6.42935975e-01  8.00858388e-01
  8.03697173e-01  8.44754536e-01  8.62957965e-01  8.94225669e-01
  9.64598894e-01  9.77205176e-01  9.97575719e-01  1.03478799e+00
  1.09780177e+00  1.09825530e+00  1.10694535e+00  1.19380781e+00
  1.19608687e+00  1.24206147e+00  1.29816140e+00  1.39083744e+00
  1.40638624e+00  1.43259569e+00  1.48589033e+00  1.48706215e+00
  1.51689143e+00  1.52550851e+00  1.58898760e+00  1.66581392e+00
  1.81282573e+00  2.02874145e+00  2.10788279e+00  2.14348239e+00
  2.15002418e+00  2.17715693e+00  2.24949471e+00  2.46649801e+00
  2.64230929e+00  2.66104528e+00  2.66705949e+00  2.68460813e+00
  2.68894417e+00  2.79260692e+00  2.82399971e+00  2.84366789e+00
  2.92421379e+00  2.94309464e+00  3.04916260e+00  3.05494622e+00
  3.06203952e+00  3.07602564e+00  3.21227851e+00  3.22851414e+00
  3.28788505e+00  3.30801671e+00  3.36718816e+00  3.43620381e+00
  3.43670989e+00  3.54008450e+00  3.55011107e+00  3.60918475e+00
  3.69386777e+00  3.75832244e+00  3.76253882e+00  3.78046772e+00
  3.85547202e+00  3.86900838e+00  3.94386002e+00  3.96461831e+00
  4.00209093e+00  4.07933958e+00  4.15985604e+00  4.16807512e+00
  4.22255280e+00  4.26297512e+00  4.33597063e+00  4.51543550e+00
  4.67976760e+00  4.79437309e+00  5.05171352e+00  5.05710889e+00
  5.16397319e+00  5.32123716e+00  6.09656588e+00  6.26762809e+00
  6.70273138e+00  6.71648745e+00  6.83380653e+00  6.84975062e+00
  7.72583005e+00  7.86903663e+00  8.21241670e+00  8.26200112e+00
  8.26487330e+00  8.27439854e+00  8.27486443e+00  8.28208365e+00
  8.31679935e+00  8.34709623e+00  8.37895254e+00  8.43542802e+00
  8.43994258e+00  8.54614821e+00  8.59314687e+00  8.63440505e+00
  8.74683311e+00  8.87306037e+00  8.95213952e+00  9.09236843e+00
  9.10876316e+00  9.31526024e+00  9.86805400e+00  1.10676064e+01
  1.10774940e+01  1.10925508e+01  1.11011874e+01  1.12910666e+01
  1.13181053e+01  1.13709854e+01  1.14184138e+01  1.18192923e+01
  1.18396860e+01  1.18621603e+01  1.18638439e+01  1.19329528e+01
  1.21160390e+01  1.22561051e+01  1.23206013e+01  1.23297054e+01
  1.23598538e+01  1.25414870e+01  1.25727066e+01  1.26173730e+01
  1.26882018e+01  1.30743379e+01  1.31680321e+01  1.51354375e+01
  3.19918878e+01  3.20125941e+01]
nelec by numeric integration = 17.999998815891807
    CPU time for vxc     38.64 sec, wall time      0.31 sec
    CPU time for df-vj      7.94 sec, wall time      0.06 sec
E1 = -136.60431681933017  Ecoul = 69.23761613477488  Exc = -9.032653513985965
cycle= 9 E= -42.0893352553756  delta_E= -1.24e-09  |g|= 1.27e-05  |ddm|= 7.7e-05
    CPU time for cycle= 9    113.17 sec, wall time      0.90 sec
  HOMO = -0.299247671440718  LUMO = -0.162781348215521
  mo_energy =
[-1.07584212e+00 -9.83206495e-01 -5.84577732e-01 -4.60686143e-01
 -4.50082823e-01 -4.46967031e-01 -3.52311019e-01 -3.27116115e-01
 -2.99247671e-01 -1.62781348e-01 -6.08465412e-03  2.67460927e-02
  1.68656997e-01  1.91394136e-01  2.00351675e-01  2.05064663e-01
  2.40837653e-01  2.51129639e-01  2.93910953e-01  2.98706871e-01
  3.11077955e-01  3.29439723e-01  3.83046327e-01  4.04760718e-01
  4.32133590e-01  5.58168339e-01  6.42935842e-01  8.00857986e-01
  8.03697058e-01  8.44754420e-01  8.62957511e-01  8.94225444e-01
  9.64598649e-01  9.77205154e-01  9.97575631e-01  1.03478766e+00
  1.09780168e+00  1.09825511e+00  1.10694533e+00  1.19380767e+00
  1.19608644e+00  1.24206131e+00  1.29816122e+00  1.39083700e+00
  1.40638589e+00  1.43259513e+00  1.48588972e+00  1.48706174e+00
  1.51689090e+00  1.52550807e+00  1.58898703e+00  1.66581361e+00
  1.81282560e+00  2.02874098e+00  2.10788249e+00  2.14348213e+00
  2.15002375e+00  2.17715655e+00  2.24949440e+00  2.46649753e+00
  2.64230906e+00  2.66104479e+00  2.66705936e+00  2.68460798e+00
  2.68894384e+00  2.79260678e+00  2.82399956e+00  2.84366771e+00
  2.92421355e+00  2.94309450e+00  3.04916244e+00  3.05494574e+00
  3.06203910e+00  3.07602534e+00  3.21227839e+00  3.22851388e+00
  3.28788473e+00  3.30801674e+00  3.36718806e+00  3.43620337e+00
  3.43670951e+00  3.54008409e+00  3.55011084e+00  3.60918453e+00
  3.69386724e+00  3.75832209e+00  3.76253836e+00  3.78046673e+00
  3.85547135e+00  3.86900770e+00  3.94385915e+00  3.96461753e+00
  4.00209000e+00  4.07933882e+00  4.15985530e+00  4.16807438e+00
  4.22255215e+00  4.26297413e+00  4.33596975e+00  4.51543461e+00
  4.67976684e+00  4.79437239e+00  5.05171299e+00  5.05710852e+00
  5.16397283e+00  5.32123674e+00  6.09656494e+00  6.26762710e+00
  6.70272994e+00  6.71648602e+00  6.83380512e+00  6.84974923e+00
  7.72582881e+00  7.86903541e+00  8.21241633e+00  8.26200025e+00
  8.26487243e+00  8.27439767e+00  8.27486359e+00  8.28208280e+00
  8.31679848e+00  8.34709546e+00  8.37895176e+00  8.43542729e+00
  8.43994172e+00  8.54614751e+00  8.59314606e+00  8.63440429e+00
  8.74683233e+00  8.87305968e+00  8.95213878e+00  9.09236766e+00
  9.10876253e+00  9.31525969e+00  9.86805355e+00  1.10676051e+01
  1.10774926e+01  1.10925495e+01  1.11011861e+01  1.12910652e+01
  1.13181040e+01  1.13709840e+01  1.14184124e+01  1.18192910e+01
  1.18396846e+01  1.18621589e+01  1.18638425e+01  1.19329513e+01
  1.21160376e+01  1.22561034e+01  1.23205997e+01  1.23297037e+01
  1.23598522e+01  1.25414853e+01  1.25727049e+01  1.26173713e+01
  1.26882001e+01  1.30743363e+01  1.31680306e+01  1.51354371e+01
  3.19918856e+01  3.20125919e+01]
nelec by numeric integration = 17.99999881589133
    CPU time for vxc     43.81 sec, wall time      0.35 sec
    CPU time for df-vj      8.57 sec, wall time      0.07 sec
E1 = -136.60433862945422  Ecoul = 69.2376431336872  Exc = -9.032658702803259
cycle= 10 E= -42.0893352554046  delta_E= -2.9e-11  |g|= 4.33e-07  |ddm|= 1.57e-05
    CPU time for cycle= 10    114.19 sec, wall time      0.91 sec
  HOMO = -0.299247527830059  LUMO = -0.162781199517943
  mo_energy =
[-1.07584198e+00 -9.83206353e-01 -5.84577566e-01 -4.60686001e-01
 -4.50082688e-01 -4.46966858e-01 -3.52310872e-01 -3.27115977e-01
 -2.99247528e-01 -1.62781200e-01 -6.08453264e-03  2.67461862e-02
  1.68657074e-01  1.91394208e-01  2.00351774e-01  2.05064739e-01
  2.40837746e-01  2.51129734e-01  2.93911039e-01  2.98706978e-01
  3.11078012e-01  3.29439793e-01  3.83046388e-01  4.04760783e-01
  4.32133652e-01  5.58168440e-01  6.42935945e-01  8.00858066e-01
  8.03697147e-01  8.44754512e-01  8.62957593e-01  8.94225544e-01
  9.64598750e-01  9.77205271e-01  9.97575758e-01  1.03478775e+00
  1.09780178e+00  1.09825521e+00  1.10694544e+00  1.19380777e+00
  1.19608653e+00  1.24206141e+00  1.29816131e+00  1.39083709e+00
  1.40638597e+00  1.43259521e+00  1.48588981e+00  1.48706184e+00
  1.51689100e+00  1.52550816e+00  1.58898713e+00  1.66581374e+00
  1.81282572e+00  2.02874110e+00  2.10788261e+00  2.14348223e+00
  2.15002386e+00  2.17715665e+00  2.24949452e+00  2.46649763e+00
  2.64230917e+00  2.66104492e+00  2.66705948e+00  2.68460810e+00
  2.68894396e+00  2.79260692e+00  2.82399969e+00  2.84366783e+00
  2.92421368e+00  2.94309464e+00  3.04916256e+00  3.05494582e+00
  3.06203920e+00  3.07602547e+00  3.21227851e+00  3.22851399e+00
  3.28788484e+00  3.30801687e+00  3.36718818e+00  3.43620350e+00
  3.43670964e+00  3.54008422e+00  3.55011097e+00  3.60918468e+00
  3.69386738e+00  3.75832224e+00  3.76253849e+00  3.78046687e+00
  3.85547149e+00  3.86900783e+00  3.94385930e+00  3.96461766e+00
  4.00209014e+00  4.07933896e+00  4.15985544e+00  4.16807452e+00
  4.22255228e+00  4.26297428e+00  4.33596988e+00  4.51543475e+00
  4.67976699e+00  4.79437254e+00  5.05171312e+00  5.05710866e+00
  5.16397296e+00  5.32123686e+00  6.09656511e+00  6.26762727e+00
  6.70273013e+00  6.71648621e+00  6.83380530e+00  6.84974941e+00
  7.72582900e+00  7.86903560e+00  8.21241650e+00  8.26200037e+00
  8.26487255e+00  8.27439779e+00  8.27486371e+00  8.28208292e+00
  8.31679861e+00  8.34709559e+00  8.37895189e+00  8.43542745e+00
  8.43994186e+00  8.54614766e+00  8.59314619e+00  8.63440442e+00
  8.74683246e+00  8.87305981e+00  8.95213892e+00  9.09236779e+00
  9.10876268e+00  9.31525984e+00  9.86805372e+00  1.10676052e+01
  1.10774928e+01  1.10925497e+01  1.11011862e+01  1.12910654e+01
  1.13181042e+01  1.13709842e+01  1.14184126e+01  1.18192912e+01
  1.18396848e+01  1.18621591e+01  1.18638427e+01  1.19329515e+01
  1.21160378e+01  1.22561037e+01  1.23205999e+01  1.23297039e+01
  1.23598524e+01  1.25414855e+01  1.25727051e+01  1.26173715e+01
  1.26882004e+01  1.30743366e+01  1.31680308e+01  1.51354373e+01
  3.19918858e+01  3.20125922e+01]
nelec by numeric integration = 17.99999881589139
    CPU time for vxc     40.50 sec, wall time      0.32 sec
    CPU time for df-vj      7.55 sec, wall time      0.06 sec
E1 = -136.60433638540147  Ecoul = 69.23764042917938  Exc = -9.032658242348313
Extra cycle  E= -42.0893352554048  delta_E= -1.14e-13  |g|= 5.14e-07  |ddm|= 1.81e-06
    CPU time for scf_cycle   1399.93 sec, wall time     11.42 sec
    CPU time for SCF   1399.94 sec, wall time     11.43 sec
converged SCF energy = -42.0893352554048
