#INFO: **** input file is /home/nkousuke/lustre/toBeSync/turboRVB/05turbo-genius-development/turbogenius_paper/04data/sanity_checks/03pyscf_HF_turbo_VMC_via_trexio/00open_boundary/results/Co/pyscf-HF-workflow/run.py ****

from pyscf_wrapper import Pyscf_wrapper

# input variables
pyscf_chkfile="pyscf.chk"
structure_file="Co.xyz"

# input variables
omp_num_threads=128
charge=0
spin=3
basis="ccecp-ccpvqz"
ecp="ccecp"
scf_method="HF"
dft_xc="NA"
solver_newton=False
MP2_flag=False
CCSD_flag=False
pyscf_output="out.pyscf"
twist_average=False
exp_to_discard=0.0
kpt=[0.0, 0.0, 0.0]
kpt_grid=[1, 1, 1]
smearing_method="fermi"
smearing_sigma=0.0

pyscf_calc=Pyscf_wrapper(
                        structure_file=structure_file,
                        chkfile=pyscf_chkfile,
                        )

pyscf_calc.run_pyscf(
                  omp_num_threads=omp_num_threads,
                  charge=charge,
                  spin=spin,
                  basis=basis,
                  ecp=ecp,
                  scf_method=scf_method,
                  dft_xc=dft_xc,
                  solver_newton=solver_newton,
                  MP2_flag=MP2_flag,
                  CCSD_flag=CCSD_flag,
                  pyscf_output=pyscf_output,
                  twist_average=twist_average,
                  exp_to_discard=exp_to_discard,
                  kpt=kpt,
                  kpt_grid=kpt_grid,
                  smearing_method=smearing_method,
                  smearing_sigma=smearing_sigma
                  )
                #INFO: ******************** input file end ********************


System: uname_result(system='Linux', node='spcc-105', release='5.4.0-66-generic', version='#74-Ubuntu SMP Wed Jan 27 22:54:38 UTC 2021', machine='x86_64', processor='x86_64')  Threads 128
Python 3.7.3 (default, Mar 27 2019, 22:11:17) 
[GCC 7.3.0]
numpy 1.20.1  scipy 1.7.3
Date: Mon Dec 19 18:09:50 2022
PySCF version 2.0.1
PySCF path  /home/nkousuke/application/anaconda3/lib/python3.7/site-packages/pyscf

[CONFIG] conf_file /home/nkousuke/.pyscf_conf.py
[INPUT] verbose = 5
[INPUT] max_memory = 507585.08203125 
[INPUT] num. atoms = 1
[INPUT] num. electrons = 17
[INPUT] charge = 0
[INPUT] spin (= nelec alpha-beta = 2S) = 3
[INPUT] symmetry False subgroup None
[INPUT] Mole.unit = A
[INPUT]  1 Co     0.000000000000   0.000000000000   0.000000000000 AA    0.000000000000   0.000000000000   0.000000000000 Bohr
[INPUT] ---------------- BASIS SET ---------------- 
[INPUT] l, kappa, [nprim/nctr], expnt,             c_1 c_2 ...
[INPUT] Co
[INPUT] 0    0    [13   /1   ]  90.663831         0.000774
                                46.961414         -0.011316
                                24.110274         0.101209
                                14.430881         -0.081642
                                8.757423          -0.354812
                                4.484459          -0.090362
                                2.519739          0.498174
                                1.23685           0.604123
                                0.601882          0.190775
                                0.223338          0.006578
                                0.123422          -0.000905
                                0.059941          0.000171
                                0.027978          -2.5e-05
[INPUT] 0    0    [13   /1   ]  90.663831         -0.000154
                                46.961414         0.002525
                                24.110274         -0.024443
                                14.430881         0.0222
                                8.757423          0.088416
                                4.484459          0.01682
                                2.519739          -0.134582
                                1.23685           -0.231295
                                0.601882          -0.163986
                                0.223338          0.121337
                                0.123422          0.402414
                                0.059941          0.506113
                                0.027978          0.145436
[INPUT] 0    0    [13   /1   ]  90.663831         -4.7e-05
                                46.961414         0.003654
                                24.110274         -0.046132
                                14.430881         0.036483
                                8.757423          0.217265
                                4.484459          -0.011883
                                2.519739          -0.324688
                                1.23685           -0.680581
                                0.601882          0.256936
                                0.223338          1.224005
                                0.123422          0.236837
                                0.059941          -0.604064
                                0.027978          -0.574947
[INPUT] 0    0    [13   /1   ]  90.663831         -0.000231
                                46.961414         0.007536
                                24.110274         -0.097298
                                14.430881         0.111611
                                8.757423          0.403621
                                4.484459          -0.048324
                                2.519739          -1.1576
                                1.23685           -0.756839
                                0.601882          2.313683
                                0.223338          0.253074
                                0.123422          -1.991466
                                0.059941          0.166942
                                0.027978          0.917221
[INPUT] 0    0    [13   /1   ]  90.663831         0.002809
                                46.961414         -0.024459
                                24.110274         0.211717
                                14.430881         -0.387452
                                8.757423          -0.366909
                                4.484459          0.139143
                                2.519739          2.834527
                                1.23685           -2.906398
                                0.601882          -0.806896
                                0.223338          4.336055
                                0.123422          -2.913607
                                0.059941          -1.253307
                                0.027978          1.509572
[INPUT] 0    0    [1    /1   ]  0.027978             1
[INPUT] 1    0    [13   /1   ]  139.038145        7.5e-05
                                71.928971         -0.000627
                                37.806311         0.005719
                                21.054252         -0.00931
                                12.973193         -0.083857
                                6.791461          0.012394
                                3.794018          0.281987
                                1.960649          0.434179
                                1.006283          0.313409
                                0.509539          0.089778
                                0.233091          0.007405
                                0.08389           0.00098
                                0.039802          0.000274
[INPUT] 1    0    [13   /1   ]  139.038145        2.5e-05
                                71.928971         -8.4e-05
                                37.806311         -0.000485
                                21.054252         9.5e-05
                                12.973193         0.022402
                                6.791461          -0.011534
                                3.794018          -0.056866
                                1.960649          -0.12607
                                1.006283          -0.060889
                                0.509539          -0.035086
                                0.233091          0.351847
                                0.08389           0.510449
                                0.039802          0.289707
[INPUT] 1    0    [13   /1   ]  139.038145        -0.000238
                                71.928971         0.001489
                                37.806311         -0.008723
                                21.054252         0.024538
                                12.973193         0.060856
                                6.791461          -0.02038
                                3.794018          -0.430195
                                1.960649          -0.407692
                                1.006283          0.085326
                                0.509539          1.073326
                                0.233091          0.015067
                                0.08389           -0.719631
                                0.039802          -0.024603
[INPUT] 1    0    [13   /1   ]  139.038145        -5.5e-05
                                71.928971         -1.7e-05
                                37.806311         0.00432
                                21.054252         -0.021339
                                12.973193         -0.127134
                                6.791461          0.157208
                                3.794018          0.794927
                                1.960649          0.233574
                                1.006283          -1.666033
                                0.509539          0.282716
                                0.233091          1.335625
                                0.08389           -0.885469
                                0.039802          -0.13034
[INPUT] 1    0    [13   /1   ]  139.038145        5.2e-05
                                71.928971         0.000144
                                37.806311         -0.005065
                                21.054252         0.051662
                                12.973193         0.209306
                                6.791461          -0.636052
                                3.794018          -1.334761
                                1.960649          2.337409
                                1.006283          0.190624
                                0.509539          -2.657841
                                0.233091          2.264444
                                0.08389           -0.612584
                                0.039802          -0.27662
[INPUT] 1    0    [1    /1   ]  0.039802             1
[INPUT] 2    0    [11   /1   ]  160.444504        3.4e-05
                                52.59883          0.006553
                                27.491581         0.036185
                                12.745988         0.083026
                                6.18431           0.17696
                                3.029146          0.26399
                                1.474099          0.292447
                                0.714391          0.249597
                                0.34852           0.171637
                                0.174166          0.080649
                                0.087891          0.041212
[INPUT] 2    0    [11   /1   ]  160.444504        -3.1e-05
                                52.59883          -0.007869
                                27.491581         -0.041992
                                12.745988         -0.101388
                                6.18431           -0.216996
                                3.029146          -0.283962
                                1.474099          -0.127179
                                0.714391          0.177125
                                0.34852           0.375596
                                0.174166          0.284631
                                0.087891          0.200277
[INPUT] 2    0    [11   /1   ]  160.444504        4.8e-05
                                52.59883          0.010531
                                27.491581         0.055559
                                12.745988         0.140758
                                6.18431           0.305785
                                3.029146          0.242812
                                1.474099          -0.285044
                                0.714391          -0.594819
                                0.34852           -0.017937
                                0.174166          0.34815
                                0.087891          0.45517
[INPUT] 2    0    [11   /1   ]  160.444504        -7e-05
                                52.59883          -0.015269
                                27.491581         -0.07877
                                12.745988         -0.218556
                                6.18431           -0.479271
                                3.029146          0.173623
                                1.474099          0.954173
                                0.714391          -0.34849
                                0.34852           -0.737371
                                0.174166          0.071941
                                0.087891          0.644882
[INPUT] 2    0    [1    /1   ]  0.087891             1
[INPUT] 3    0    [1    /1   ]  0.574342             1
[INPUT] 3    0    [1    /1   ]  1.905783             1
[INPUT] 3    0    [1    /1   ]  6.323772             1
[INPUT] 4    0    [1    /1   ]  1.312433             1
[INPUT] 4    0    [1    /1   ]  4.581075             1
[INPUT] 5    0    [1    /1   ]  2.901601             1

nuclear repulsion = 0
number of shells = 23
number of NR pGTOs = 539
number of NR cGTOs = 99
basis = ccecp-ccpvqz
ecp = ccecp
CPU time:         5.25


******** <class 'pyscf.scf.rohf.ROHF'> ********
method = ROHF-RHF
initial guess = minao
damping factor = 0
level_shift factor = 0
DIIS = <class 'pyscf.scf.diis.CDIIS'>
diis_start_cycle = 1
diis_space = 8
SCF conv_tol = 1e-09
SCF conv_tol_grad = None
SCF max_cycles = 200
direct_scf = True
direct_scf_tol = 1e-13
chkfile to save SCF result = pyscf.chk
max_memory 507585 MB (current use 106 MB)
num. doubly occ = 7  num. singly occ = 3
Set gradient conv threshold to 3.16228e-05
E1 = -268.41749269711823  Ecoul = 125.0002158858787
init E= -143.41727681124
cond(S) = 1032.150703799828
    CPU time for initialize scf    351.07 sec, wall time      8.21 sec

WARN: HOMO 0.145346023726537 >= LUMO 0.145346023726542

                  Roothaan           | alpha              | beta
  Highest 2-occ = 0.0833332886883649 | 0.0833332886883658 | 0.0833332886883658
  Lowest 0-occ =   0.145346023726542 |  0.145346023726543 |  0.145346023726543
  1-occ =         0.0833332886883677 | 0.0833332886883671 | 0.0833332886883671
  1-occ =          0.145346023726537 |  0.145346023726541 |  0.145346023726541
  1-occ =          0.145346023726537 |  0.145346023726541 |  0.145346023726541
  Roothaan mo_energy =
[-3.75901943 -2.20380032 -2.20380032 -2.20380032  0.04827287  0.08333329
  0.08333329  0.08333329  0.14534602  0.14534602  0.14534602  0.14534602
  0.14534602  0.27523084  0.32333229  0.32333229  0.32333229  0.34543737
  0.34543737  0.34543737  0.34543737  0.34543737  1.04164515  1.10434105
  1.10434105  1.10434105  1.15758901  1.15758901  1.15758901  1.15758901
  1.15758901  2.21179302  2.21179302  2.21179302  2.21179302  2.21179302
  2.21179302  2.21179302  2.93479553  3.48535365  3.48535365  3.48535365
  3.48535365  3.48535365  3.5735442   3.5735442   3.5735442   6.34235488
  6.34235488  6.34235488  6.34235488  6.34235488  6.34235488  6.34235488
  6.34235488  6.34235488  6.81217276  6.81217276  6.81217276  6.81217276
  6.81217276  6.81217276  6.81217276  7.79137061 10.33290261 10.33290261
 10.33290261 10.33290261 10.33290261 11.83684951 11.83684951 11.83684951
 16.69871408 16.69871408 16.69871408 16.69871408 16.69871408 16.69871408
 16.69871408 16.69871408 16.69871408 16.69871408 16.69871408 20.27670083
 20.27670083 20.27670083 20.27670083 20.27670083 20.27670083 20.27670083
 20.90139364 20.90139364 20.90139364 20.90139364 20.90139364 20.90139364
 20.90139364 20.90139364 20.90139364]
E1 = -183.16215398964965  Ecoul = 54.177355674491025
cycle= 1 E= -128.984798315159  delta_E= 14.4  |g|= 6.34  |ddm|= 6.81
    CPU time for cycle= 1    117.85 sec, wall time      0.96 sec
  HOMO = -2.27780637097894  LUMO = -1.7979553780402
                  Roothaan           | alpha              | beta
  Highest 2-occ =  -4.86375995542073 |  -4.88305115456729 |  -4.79986228490354
  Lowest 0-occ =    -1.7979553780402 |  -1.82314850861422 |  -1.77267142024242
  1-occ =          -4.86330321625629 |  -4.88253776684922 |  -4.84405513689332
  1-occ =          -4.83201779323221 |  -4.84579092260595 |  -4.81824144402127
  1-occ =          -2.27780637097894 |  -2.30350486366849 |   -2.2521207109328
  Roothaan mo_energy =
[-9.82280907e+00 -8.05988258e+00 -8.05901498e+00 -8.04961075e+00
 -5.14317362e+00 -5.14124404e+00 -4.86375996e+00 -4.86330322e+00
 -4.83201779e+00 -2.27780637e+00 -1.79795538e+00 -1.79528245e+00
 -1.78166362e+00 -1.12608835e+00 -1.12304552e+00 -1.11070911e+00
 -1.10945655e+00 -1.08853721e+00 -6.79821719e-01 -4.78616772e-01
 -4.72803570e-01 -4.61112461e-01 -4.57156347e-01 -4.56424830e-01
 -4.51139712e-01 -4.51023509e-01 -4.44237857e-01 -4.42916957e-01
 -4.37794680e-01 -1.61939016e-01 -1.61568105e-01 -1.49633718e-01
 -1.21906876e-01 -1.14409720e-01 -1.10626925e-01 -4.21949144e-02
 -3.72508471e-02 -1.31408675e-02  4.15533699e-01  4.16083227e-01
  4.27770226e-01  4.33857257e-01  4.35616846e-01  6.89051025e-01
  6.97813964e-01  7.13738256e-01  9.71964436e-01  2.11374152e+00
  2.11374538e+00  2.12438093e+00  2.12454525e+00  2.13233266e+00
  2.13440034e+00  2.13691066e+00  2.64187917e+00  2.64187947e+00
  2.65803426e+00  2.65804909e+00  2.66494098e+00  2.66539905e+00
  2.66742094e+00  2.66976124e+00  2.67001191e+00  3.97351744e+00
  4.59093152e+00  4.59100755e+00  4.60646817e+00  4.60884148e+00
  4.61438617e+00  6.28065395e+00  6.28410773e+00  6.31033055e+00
  1.16168134e+01  1.16168134e+01  1.16404591e+01  1.16404632e+01
  1.16504565e+01  1.16506250e+01  1.16533595e+01  1.16541756e+01
  1.16550619e+01  1.16569318e+01  1.16571315e+01  1.34857250e+01
  1.34857263e+01  1.35024713e+01  1.35025194e+01  1.35099816e+01
  1.35109080e+01  1.35128044e+01  1.46591013e+01  1.46591015e+01
  1.46815550e+01  1.46815923e+01  1.46899585e+01  1.46903303e+01
  1.46925709e+01  1.46938727e+01  1.46943345e+01]
E1 = -287.6997751712384  Ecoul = 152.6364732775875
cycle= 2 E= -135.063301893651  delta_E= -6.08  |g|= 10.6  |ddm|= 7.02
    CPU time for cycle= 2     88.90 sec, wall time      0.70 sec

WARN: HOMO -0.109726661743556 >= LUMO -2.03039194748561

                  Roothaan           | alpha              | beta
  Highest 2-occ =  -2.24780273732078 |   1.96284544472236 |    2.0704787419765
  Lowest 0-occ =   -2.03039194748561 |  0.359525360176693 |  0.375030195879328
  1-occ =          -0.22864502322085 |   0.35715842218262 |   0.39954347421822
  1-occ =          -0.11268642754214 |   0.34679995325512 |  0.362367105467635
  1-occ =         -0.109726661743556 |  0.345542279504211 |  0.360965560120556
  Roothaan mo_energy =
[-6.90557724 -5.21619213 -5.21568194 -5.21164698 -2.43862795 -2.43719047
 -2.24780274 -2.03039195 -2.01183971 -1.08459405 -0.68204489 -0.68185198
 -0.67598142 -0.22864502 -0.20134247 -0.198432   -0.18859179 -0.17764598
 -0.17445099 -0.11268643 -0.10972666 -0.08439186  0.19312198  0.19421636
  0.19599661  0.20221486  0.20569547  0.20760801  0.22677976  0.22940404
  0.23529075  0.67902112  0.67906193  0.68225009  0.68227005  0.68526094
  0.68722957  0.68956616  1.47679267  1.4825256   1.48607441  1.4880062
  1.49626284  1.72505182  1.72928174  1.74171634  1.77896765  4.15869562
  4.16132287  4.16227459  4.16444951  4.16447979  4.16471238  4.17114793
  4.17225112  4.17579284  4.17611263  4.17626754  4.17850836  4.17929918
  4.18023808  4.18127249  4.18180152  5.50815468  7.29609215  7.30366927
  7.30467914  7.31221417  7.32465582  8.89202331  8.89361521  8.90881333
 13.83318057 13.83318396 13.8514384  13.85300318 13.85465545 13.85564411
 13.85604929 13.85690719 13.86058511 13.86147308 13.86207959 16.82621164
 16.8263188  16.83004413 16.83390811 16.83908181 16.83947059 16.84218508
 17.6065648  17.6067066  17.6230928  17.62359899 17.62479259 17.62562412
 17.62751581 17.62831247 17.63054887]
E1 = -249.25905170559383  Ecoul = 106.79266219520254
cycle= 3 E= -142.466389510391  delta_E= -7.4  |g|= 2.26  |ddm|= 3.67
    CPU time for cycle= 3     41.78 sec, wall time      0.33 sec

WARN: HOMO -0.131494032537609 >= LUMO -0.904315015351966

                  Roothaan           | alpha              | beta
  Highest 2-occ =   -1.7897719020951 | -0.971100639243655 | -0.963576766263702
  Lowest 0-occ =  -0.904315015351966 | -0.105284205944788 | -0.078729772208825
  1-occ =         -0.575006908888532 | -0.291983467608487 | -0.261954370052405
  1-occ =         -0.319208444430413 | -0.105945106769552 | -0.0650798614300136
  1-occ =         -0.131494032537609 |  -0.15243966523841 |  0.101188962032144
  Roothaan mo_energy =
[-5.94287690e+00 -4.29997169e+00 -4.29725034e+00 -4.29690883e+00
 -1.82971804e+00 -1.82752311e+00 -1.78977190e+00 -9.04315015e-01
 -9.00360940e-01 -5.75006909e-01 -3.24264964e-01 -3.19208444e-01
 -3.19028089e-01 -1.31494033e-01 -3.19832829e-02 -3.16652154e-02
  1.91027754e-03  6.39731617e-03  1.52273841e-02  1.74433725e-02
  1.93169785e-02  2.43744491e-02  3.73041494e-01  3.86115251e-01
  3.86501769e-01  3.87057577e-01  3.87678052e-01  3.93396249e-01
  3.94350574e-01  4.21458089e-01  4.27073357e-01  1.11318897e+00
  1.11480385e+00  1.11904126e+00  1.11994232e+00  1.12355854e+00
  1.12697553e+00  1.12797326e+00  2.00395699e+00  2.00409058e+00
  2.00957879e+00  2.07810526e+00  2.08274350e+00  2.10010973e+00
  2.22847711e+00  2.23426290e+00  2.23486708e+00  4.79926202e+00
  4.80215762e+00  4.80348389e+00  4.80674508e+00  4.80782066e+00
  4.80986443e+00  4.81645497e+00  4.82015858e+00  4.82034392e+00
  4.92722369e+00  4.95131193e+00  4.95408544e+00  4.95656133e+00
  4.97432787e+00  4.97692074e+00  4.97824302e+00  6.16376127e+00
  8.18240553e+00  8.18330562e+00  8.18573670e+00  8.24242621e+00
  8.24573854e+00  9.77280509e+00  9.77612402e+00  9.77658319e+00
  1.47058254e+01  1.47074357e+01  1.47080123e+01  1.47166153e+01
  1.47189208e+01  1.47192546e+01  1.47443031e+01  1.47462560e+01
  1.47498174e+01  1.47503733e+01  1.47518971e+01  1.78824471e+01
  1.78893663e+01  1.78896742e+01  1.78900740e+01  1.78951561e+01
  1.78963644e+01  1.78971873e+01  1.86219027e+01  1.86308206e+01
  1.86315442e+01  1.86341681e+01  1.86387256e+01  1.86403798e+01
  1.86607048e+01  1.86612961e+01  1.86617327e+01]
E1 = -253.3192544344303  Ecoul = 109.82266451546204
cycle= 4 E= -143.496589918968  delta_E= -1.03  |g|= 1.08  |ddm|= 3.01
    CPU time for cycle= 4    134.81 sec, wall time      1.06 sec

WARN: HOMO 0.0306782566508276 >= LUMO -0.206927655773162

                  Roothaan           | alpha              | beta
  Highest 2-occ =   -1.0910839845604 | -0.782045546305636 | -0.758711709159945
  Lowest 0-occ =  -0.206927655773162 | -0.0260445996430423 |  0.052544605731021
  1-occ =         -0.362354658251121 |  -0.48030583427628 | -0.0231446077457361
  1-occ =          -0.12308779074836 | -0.255435866583306 |  0.153100993993474
  1-occ =         0.0306782566508276 | -0.0523634676733232 |  0.144083426327897
  Roothaan mo_energy =
[-5.16214235 -3.52950977 -3.52803203 -3.51797465 -1.10429711 -1.0995393
 -1.09108398 -0.36235466 -0.20692766 -0.19597405 -0.12308779 -0.02788489
 -0.02752703  0.03067826  0.11887718  0.13549365  0.13682538  0.18648446
  0.19219228  0.19614856  0.20450448  0.20869144  0.62119483  0.69351049
  0.6973371   0.6979793   0.70629201  0.7173297   0.71896502  0.76227746
  0.77094854  1.64715609  1.6478232   1.66488809  1.66904569  1.67582785
  1.68032592  1.68271346  2.43453303  2.56788112  2.58350188  2.58543785
  2.65025809  2.66344909  2.76986858  2.77128089  2.79231947  5.46061789
  5.46125047  5.47587938  5.47774135  5.48571136  5.49163161  5.49424915
  5.49982712  5.50196964  5.64563605  5.66407494  5.67405135  5.6822106
  5.69324911  5.69878635  5.70530505  6.7534067   8.91514288  8.9248278
  8.92674693  8.97314745  8.9834284  10.49300964 10.49594891 10.50896467
 15.45607697 15.45716833 15.46687841 15.47221026 15.47931227 15.48060083
 15.49876036 15.50530093 15.50870238 15.51362217 15.51515755 18.68969437
 18.69098112 18.69593788 18.6986082  18.70064745 18.70469525 18.70641195
 19.41231862 19.41810818 19.42531113 19.43031924 19.43353639 19.43594377
 19.45548513 19.45584693 19.45992948]
E1 = -250.0670098804324  Ecoul = 106.40721268939764
cycle= 5 E= -143.659797191035  delta_E= -0.163  |g|=  0.3  |ddm|= 0.855
    CPU time for cycle= 5     97.22 sec, wall time      0.81 sec

WARN: HOMO -0.121760714818102 >= LUMO -0.195990330447833

                  Roothaan           | alpha              | beta
  Highest 2-occ =  -1.09058483636004 |  -1.00287446205977 | -0.982409031705002
  Lowest 0-occ =  -0.195990330447833 | -0.126569344282289 | -0.0915721160676331
  1-occ =         -0.336781590596669 | -0.530448361402844 | -0.0863969383146165
  1-occ =         -0.203190036264764 | -0.127645800476605 | -0.103758206301846
  1-occ =         -0.121760714818102 | -0.300489158295301 | 0.0955324914938597
  Roothaan mo_energy =
[-5.13063492e+00 -3.50175192e+00 -3.50126143e+00 -3.49516846e+00
 -1.09681669e+00 -1.09214796e+00 -1.09058484e+00 -3.36781591e-01
 -2.03190036e-01 -1.95990330e-01 -1.21760715e-01 -3.05125045e-02
 -2.95477846e-02  1.15307953e-02  1.20906291e-01  1.29680212e-01
  1.29916661e-01  1.78511188e-01  1.83363426e-01  1.85010492e-01
  1.94408755e-01  1.99385409e-01  6.52158602e-01  6.91241986e-01
  6.92810118e-01  7.00624415e-01  7.03074568e-01  7.11361368e-01
  7.12729478e-01  7.52294625e-01  7.61794557e-01  1.63758585e+00
  1.63874009e+00  1.65341173e+00  1.65846690e+00  1.66386188e+00
  1.66877068e+00  1.67149849e+00  2.43810972e+00  2.57814692e+00
  2.59102794e+00  2.59257233e+00  2.65267903e+00  2.66411570e+00
  2.77633684e+00  2.77855904e+00  2.79647573e+00  5.46581358e+00
  5.46669093e+00  5.47845899e+00  5.48058995e+00  5.48632328e+00
  5.49054144e+00  5.49495231e+00  5.49858535e+00  5.50130854e+00
  5.66288412e+00  5.68238258e+00  5.68967742e+00  5.69578922e+00
  5.70873800e+00  5.71184336e+00  5.71683729e+00  6.77030464e+00
  8.94894034e+00  8.95543235e+00  8.95635125e+00  9.00195149e+00
  9.00822689e+00  1.05238952e+01  1.05253753e+01  1.05338496e+01
  1.54779065e+01  1.54789230e+01  1.54847249e+01  1.54917420e+01
  1.54953417e+01  1.54961584e+01  1.55194983e+01  1.55249891e+01
  1.55257844e+01  1.55303172e+01  1.55310803e+01  1.87290408e+01
  1.87308375e+01  1.87337895e+01  1.87360201e+01  1.87371771e+01
  1.87376661e+01  1.87391955e+01  1.94445030e+01  1.94525628e+01
  1.94561844e+01  1.94581710e+01  1.94629765e+01  1.94643494e+01
  1.94858747e+01  1.94863225e+01  1.94884861e+01]
E1 = -258.77510042040905  Ecoul = 114.767365750656
cycle= 6 E= -144.007734669753  delta_E= -0.348  |g|= 0.898  |ddm|= 1.31
    CPU time for cycle= 6     83.36 sec, wall time      0.67 sec

WARN: HOMO -0.132510786540575 >= LUMO -0.224689467838308

                  Roothaan           | alpha              | beta
  Highest 2-occ =  -1.12619644251573 | -0.430329359356761 | -0.398369250655211
  Lowest 0-occ =  -0.224689467838308 | 0.0649945164066431 |  0.130513791118163
  1-occ =         -0.353722379530177 | -0.313848062502064 |   0.12937449916285
  1-occ =         -0.193061804657348 | -0.405087097024445 |  0.441533836175453
  1-occ =         -0.132510786540575 | -0.140999805200268 |   0.25227065791778
  Roothaan mo_energy =
[-5.16803980e+00 -3.53804782e+00 -3.53666497e+00 -3.53003645e+00
 -1.13805113e+00 -1.13005174e+00 -1.12619644e+00 -3.53722380e-01
 -2.24689468e-01 -1.93061805e-01 -1.32510787e-01 -3.82969332e-02
 -3.71293906e-02 -1.57609167e-04  1.17025246e-01  1.23669542e-01
  1.24062038e-01  1.73423424e-01  1.78443927e-01  1.79892434e-01
  1.89954725e-01  1.94051131e-01  6.38731109e-01  6.77578364e-01
  6.79802525e-01  6.87101678e-01  6.90464564e-01  6.98665703e-01
  6.99709235e-01  7.40197327e-01  7.48351689e-01  1.61767357e+00
  1.61885582e+00  1.63357172e+00  1.63898588e+00  1.64438657e+00
  1.65011915e+00  1.65278075e+00  2.42289715e+00  2.55156326e+00
  2.56568153e+00  2.56831725e+00  2.62852252e+00  2.64045810e+00
  2.75087630e+00  2.75528533e+00  2.77436966e+00  5.43608864e+00
  5.43698041e+00  5.45043618e+00  5.45306415e+00  5.45976460e+00
  5.46476108e+00  5.46832806e+00  5.47147866e+00  5.47439857e+00
  5.62968007e+00  5.64949498e+00  5.65649100e+00  5.66325328e+00
  5.67622984e+00  5.68087232e+00  5.68624049e+00  6.74258852e+00
  8.91254772e+00  8.92079997e+00  8.92323974e+00  8.96731750e+00
  8.97640383e+00  1.04873840e+01  1.04917230e+01  1.05026155e+01
  1.54391193e+01  1.54402801e+01  1.54498769e+01  1.54561841e+01
  1.54622386e+01  1.54627818e+01  1.54830808e+01  1.54903990e+01
  1.54928158e+01  1.54957405e+01  1.54974962e+01  1.86898152e+01
  1.86907435e+01  1.86937601e+01  1.86961234e+01  1.86987686e+01
  1.87015225e+01  1.87032024e+01  1.94042012e+01  1.94104885e+01
  1.94180545e+01  1.94226535e+01  1.94249782e+01  1.94276142e+01
  1.94477639e+01  1.94487652e+01  1.94518065e+01]
E1 = -258.9579334171325  Ecoul = 114.97079346748458
cycle= 7 E= -143.987139949648  delta_E= 0.0206  |g|= 0.957  |ddm|= 0.0781
    CPU time for cycle= 7     29.54 sec, wall time      0.24 sec

WARN: HOMO -0.128501198222376 >= LUMO -0.212867979317026

                  Roothaan           | alpha              | beta
  Highest 2-occ =  -1.11112167025306 | -0.420830960374628 | -0.388938530686962
  Lowest 0-occ =  -0.212867979317026 | 0.0650373450821181 |  0.129759707004825
  1-occ =         -0.347407747831566 | -0.313526951673256 |  0.131969802453539
  1-occ =          -0.19262798634197 | -0.382054561584919 |  0.456244246033602
  1-occ =         -0.128501198222376 | -0.141907010759954 |   0.25194939841664
  Roothaan mo_energy =
[-5.15219222e+00 -3.52278168e+00 -3.52163042e+00 -3.51509704e+00
 -1.12098230e+00 -1.11396178e+00 -1.11112167e+00 -3.47407748e-01
 -2.12867979e-01 -1.92627986e-01 -1.28501198e-01 -3.48914519e-02
 -3.38971741e-02  4.65458510e-03  1.19268402e-01  1.26206024e-01
  1.26511619e-01  1.75571641e-01  1.80428779e-01  1.82071867e-01
  1.90821781e-01  1.96408410e-01  6.43472668e-01  6.83176923e-01
  6.85096892e-01  6.92666162e-01  6.95969757e-01  7.04110460e-01
  7.05213140e-01  7.44284118e-01  7.54150700e-01  1.62588427e+00
  1.62707672e+00  1.64165059e+00  1.64706046e+00  1.65251243e+00
  1.65796120e+00  1.66071233e+00  2.42913815e+00  2.56253299e+00
  2.57637274e+00  2.57853161e+00  2.63791880e+00  2.65055351e+00
  2.76125514e+00  2.76490931e+00  2.78379374e+00  5.44802806e+00
  5.44889465e+00  5.46211394e+00  5.46457415e+00  5.47083900e+00
  5.47560512e+00  5.47938733e+00  5.48265459e+00  5.48552256e+00
  5.64358911e+00  5.66318009e+00  5.67024921e+00  5.67669234e+00
  5.68965371e+00  5.69386329e+00  5.69931440e+00  6.75422369e+00
  8.92800732e+00  8.93576908e+00  8.93752845e+00  8.98171930e+00
  8.99030063e+00  1.05027331e+01  1.05059851e+01  1.05162416e+01
  1.54548352e+01  1.54558667e+01  1.54646905e+01  1.54710964e+01
  1.54762142e+01  1.54768332e+01  1.54980470e+01  1.55048571e+01
  1.55066433e+01  1.55101239e+01  1.55115060e+01  1.87066308e+01
  1.87078179e+01  1.87106863e+01  1.87129244e+01  1.87152096e+01
  1.87172051e+01  1.87189113e+01  1.94211181e+01  1.94277435e+01
  1.94344056e+01  1.94379549e+01  1.94410319e+01  1.94432345e+01
  1.94639418e+01  1.94645033e+01  1.94673692e+01]
E1 = -258.8716403223951  Ecoul = 114.87515795208029
cycle= 8 E= -143.996482370315  delta_E= -0.00934  |g|= 0.93  |ddm|= 0.0965
    CPU time for cycle= 8     83.39 sec, wall time      0.72 sec

WARN: HOMO -0.1273717473224 >= LUMO -0.211864193109602

                  Roothaan           | alpha              | beta
  Highest 2-occ =  -1.10617723334753 | -0.427930555572973 | -0.395703139688242
  Lowest 0-occ =  -0.211864193109602 | 0.0637644277155369 |  0.128557777333265
  1-occ =         -0.345624670549381 | -0.314301804878369 |  0.129548700201295
  1-occ =         -0.190790788629923 | -0.310196006115859 |  0.440711074267875
  1-occ =           -0.1273717473224 | -0.142937037260439 |  0.249978661220537
  Roothaan mo_energy =
[-5.14781668e+00 -3.51884851e+00 -3.51725833e+00 -3.51096614e+00
 -1.11617602e+00 -1.11048443e+00 -1.10617723e+00 -3.45624671e-01
 -2.11864193e-01 -1.90790789e-01 -1.27371747e-01 -3.41388992e-02
 -3.29350822e-02  6.02004890e-03  1.19880559e-01  1.26779022e-01
  1.27264788e-01  1.76110815e-01  1.81060038e-01  1.82573534e-01
  1.91206317e-01  1.97046936e-01  6.44818670e-01  6.84365475e-01
  6.86801322e-01  6.94110209e-01  6.97524003e-01  7.05635700e-01
  7.06679548e-01  7.45372735e-01  7.55720524e-01  1.62803006e+00
  1.62920564e+00  1.64377245e+00  1.64907443e+00  1.65442880e+00
  1.66035024e+00  1.66299281e+00  2.43082772e+00  2.56546681e+00
  2.57892166e+00  2.58172056e+00  2.64045469e+00  2.65335250e+00
  2.76337025e+00  2.76816165e+00  2.78643963e+00  5.45111410e+00
  5.45204074e+00  5.46469924e+00  5.46737344e+00  5.47433867e+00
  5.47907352e+00  5.48259105e+00  5.48557355e+00  5.48847471e+00
  5.64739810e+00  5.66691670e+00  5.67401504e+00  5.68028439e+00
  5.69282866e+00  5.69790559e+00  5.70300420e+00  6.75742278e+00
  8.93228315e+00  8.93932372e+00  8.94202833e+00  8.98559832e+00
  8.99422792e+00  1.05060340e+01  1.05109078e+01  1.05199439e+01
  1.54589664e+01  1.54604878e+01  1.54678663e+01  1.54743433e+01
  1.54808809e+01  1.54814486e+01  1.55019949e+01  1.55088083e+01
  1.55106992e+01  1.55137550e+01  1.55155929e+01  1.87112790e+01
  1.87124494e+01  1.87157410e+01  1.87173138e+01  1.87187880e+01
  1.87222845e+01  1.87234792e+01  1.94257036e+01  1.94327838e+01
  1.94376138e+01  1.94431066e+01  1.94451489e+01  1.94480846e+01
  1.94680425e+01  1.94692319e+01  1.94716559e+01]
E1 = -258.78708646856825  Ecoul = 114.78734953310473
cycle= 9 E= -143.999736935464  delta_E= -0.00325  |g|= 0.916  |ddm|= 0.483
    CPU time for cycle= 9    116.48 sec, wall time      1.00 sec

WARN: HOMO -0.127466926235315 >= LUMO -0.207656446188231

                  Roothaan           | alpha              | beta
  Highest 2-occ =  -1.10631799582921 | -0.440265530109059 | -0.399292627037706
  Lowest 0-occ =  -0.207656446188231 | 0.0625428298704007 |  0.125235257478235
  1-occ =         -0.345634426165727 | -0.317299493084867 |  0.127670318379858
  1-occ =         -0.193241933457017 | -0.374485103765511 |  0.443867322864967
  1-occ =         -0.127466926235315 | -0.143227643736849 |  0.248353038702783
  Roothaan mo_energy =
[-5.14745231e+00 -3.51834924e+00 -3.51689480e+00 -3.51071320e+00
 -1.11525574e+00 -1.11015404e+00 -1.10631800e+00 -3.45634426e-01
 -2.07656446e-01 -1.93241933e-01 -1.27466926e-01 -3.39221758e-02
 -3.28524177e-02  5.90369658e-03  1.20007580e-01  1.26891060e-01
  1.27297952e-01  1.76205643e-01  1.80965627e-01  1.82644001e-01
  1.90673109e-01  1.97184735e-01  6.44781588e-01  6.84668500e-01
  6.86888085e-01  6.94361751e-01  6.97531318e-01  7.05716647e-01
  7.06783291e-01  7.45252375e-01  7.56012414e-01  1.62834557e+00
  1.62955250e+00  1.64413073e+00  1.64939471e+00  1.65466051e+00
  1.66046059e+00  1.66311283e+00  2.43098611e+00  2.56598978e+00
  2.57919776e+00  2.58173711e+00  2.64068805e+00  2.65353425e+00
  2.76400743e+00  2.76835441e+00  2.78632975e+00  5.45188490e+00
  5.45282709e+00  5.46500560e+00  5.46759405e+00  5.47445437e+00
  5.47897554e+00  5.48274031e+00  5.48582040e+00  5.48871081e+00
  5.64773597e+00  5.66729290e+00  5.67453290e+00  5.68066344e+00
  5.69321264e+00  5.69807674e+00  5.70308558e+00  6.75769174e+00
  8.93299345e+00  8.93969888e+00  8.94204643e+00  8.98620269e+00
  8.99429738e+00  1.05069399e+01  1.05112444e+01  1.05197319e+01
  1.54599640e+01  1.54615417e+01  1.54679518e+01  1.54746297e+01
  1.54806966e+01  1.54813143e+01  1.55027170e+01  1.55091765e+01
  1.55106340e+01  1.55141150e+01  1.55157365e+01  1.87117627e+01
  1.87131233e+01  1.87164726e+01  1.87179717e+01  1.87190773e+01
  1.87222324e+01  1.87233766e+01  1.94264037e+01  1.94339293e+01
  1.94378404e+01  1.94429273e+01  1.94454315e+01  1.94481242e+01
  1.94685776e+01  1.94695172e+01  1.94718358e+01]
E1 = -258.7744745923871  Ecoul = 114.77407588189497
cycle= 10 E= -144.000398710492  delta_E= -0.000662  |g|= 0.914  |ddm|= 0.252
    CPU time for cycle= 10    130.52 sec, wall time      1.20 sec

WARN: HOMO -0.127248070730031 >= LUMO -0.206609841815318

                  Roothaan           | alpha              | beta
  Highest 2-occ =   -1.1053661478383 | -0.436805530709385 | -0.396643564535215
  Lowest 0-occ =  -0.206609841815318 | 0.0619172304911005 |  0.124202033761844
  1-occ =         -0.345357840752781 | -0.317855315437668 |  0.128910487537722
  1-occ =         -0.193830076720879 | -0.320888640027368 |  0.439272114696415
  1-occ =         -0.127248070730031 |  -0.14324687990645 |   0.24843977352138
  Roothaan mo_energy =
[-5.14611900e+00 -3.51697518e+00 -3.51570833e+00 -3.50952053e+00
 -1.11339172e+00 -1.10875962e+00 -1.10536615e+00 -3.45357841e-01
 -2.06609842e-01 -1.93830077e-01 -1.27248071e-01 -3.35015254e-02
 -3.25237243e-02  7.06799468e-03  1.20439162e-01  1.27353694e-01
  1.27630364e-01  1.76515983e-01  1.81333538e-01  1.82983040e-01
  1.91299589e-01  1.97637707e-01  6.44835742e-01  6.85415894e-01
  6.87343952e-01  6.94989393e-01  6.98102432e-01  7.06319601e-01
  7.07404861e-01  7.45342013e-01  7.56867505e-01  1.62909945e+00
  1.63030003e+00  1.64476716e+00  1.65006768e+00  1.65554793e+00
  1.66106611e+00  1.66386799e+00  2.43155719e+00  2.56709259e+00
  2.58020343e+00  2.58247079e+00  2.64129631e+00  2.65450515e+00
  2.76521418e+00  2.76908596e+00  2.78700917e+00  5.45301675e+00
  5.45393433e+00  5.46620934e+00  5.46870635e+00  5.47524687e+00
  5.47967421e+00  5.48359404e+00  5.48674163e+00  5.48962230e+00
  5.64894834e+00  5.66855101e+00  5.67578086e+00  5.68181512e+00
  5.69452253e+00  5.69900852e+00  5.70409450e+00  6.75870385e+00
  8.93452884e+00  8.94095626e+00  8.94294309e+00  8.98755071e+00
  8.99518391e+00  1.05086406e+01  1.05123640e+01  1.05204880e+01
  1.54617208e+01  1.54632626e+01  1.54691924e+01  1.54760055e+01
  1.54815399e+01  1.54822162e+01  1.55042575e+01  1.55104420e+01
  1.55115990e+01  1.55154007e+01  1.55168200e+01  1.87132203e+01
  1.87147610e+01  1.87181158e+01  1.87196029e+01  1.87204122e+01
  1.87231096e+01  1.87242089e+01  1.94280778e+01  1.94360421e+01
  1.94391397e+01  1.94437485e+01  1.94467943e+01  1.94491835e+01
  1.94700766e+01  1.94707925e+01  1.94730193e+01]
E1 = -258.749758706488  Ecoul = 114.74851969100831
cycle= 11 E= -144.00123901548  delta_E= -0.00084  |g|= 0.91  |ddm|= 0.461
    CPU time for cycle= 11     54.50 sec, wall time      0.52 sec

WARN: HOMO -0.125905509843993 >= LUMO -0.202612850177655

                  Roothaan           | alpha              | beta
  Highest 2-occ =   -1.1000059746794 | -0.438668682317513 | -0.398524368340281
  Lowest 0-occ =  -0.202612850177655 | 0.0607140796473526 |  0.122959224898708
  1-occ =         -0.343714514963858 | -0.320128912536639 |  0.128896687791277
  1-occ =         -0.189023214608179 | -0.316408233953488 |  0.438942654730607
  1-occ =         -0.125905509843993 | -0.142832754192903 |  0.250478750877168
  Roothaan mo_energy =
[-5.14006783e+00 -3.51095512e+00 -3.50983417e+00 -3.50365379e+00
 -1.10694270e+00 -1.10258901e+00 -1.10000597e+00 -3.43714515e-01
 -2.02612850e-01 -1.89023215e-01 -1.25905510e-01 -3.16773029e-02
 -3.09405123e-02  8.77870305e-03  1.21413524e-01  1.28636836e-01
  1.28784668e-01  1.77718192e-01  1.82447468e-01  1.84188218e-01
  1.92116696e-01  1.99030951e-01  6.46482220e-01  6.88279772e-01
  6.89760531e-01  6.97675074e-01  7.00591657e-01  7.08874034e-01
  7.10026066e-01  7.47345185e-01  7.59798460e-01  1.63308207e+00
  1.63429701e+00  1.64883732e+00  1.65410562e+00  1.65953429e+00
  1.66498877e+00  1.66780748e+00  2.43420383e+00  2.57176737e+00
  2.58472861e+00  2.58671234e+00  2.64540353e+00  2.65890115e+00
  2.76981782e+00  2.77314923e+00  2.79096131e+00  5.45840958e+00
  5.45932638e+00  5.47129032e+00  5.47368251e+00  5.48009063e+00
  5.48438767e+00  5.48848177e+00  5.49179347e+00  5.49462685e+00
  5.65452445e+00  5.67405327e+00  5.68148639e+00  5.68737561e+00
  5.70005436e+00  5.70433865e+00  5.70940972e+00  6.76331598e+00
  8.94051603e+00  8.94677333e+00  8.94826945e+00  8.99326955e+00
  9.00050385e+00  1.05148478e+01  1.05177176e+01  1.05256259e+01
  1.54681840e+01  1.54696664e+01  1.54749574e+01  1.54819357e+01
  1.54868825e+01  1.54876303e+01  1.55104299e+01  1.55161920e+01
  1.55170995e+01  1.55213079e+01  1.55224701e+01  1.87195045e+01
  1.87211677e+01  1.87244449e+01  1.87261459e+01  1.87268759e+01
  1.87287894e+01  1.87299410e+01  1.94345074e+01  1.94428223e+01
  1.94454378e+01  1.94492385e+01  1.94529863e+01  1.94550252e+01
  1.94763663e+01  1.94768149e+01  1.94790141e+01]
E1 = -258.69311753463995  Ecoul = 114.68998462599936
cycle= 12 E= -144.003132908641  delta_E= -0.00189  |g|= 0.898  |ddm|= 0.475
    CPU time for cycle= 12    112.97 sec, wall time      0.96 sec

WARN: HOMO -0.111564913933756 >= LUMO -0.222963345513809

                  Roothaan           | alpha              | beta
  Highest 2-occ =  -1.03324543066492 |  -0.43910159682863 | -0.404260466009394
  Lowest 0-occ =  -0.222963345513809 | 0.0540249964739146 |  0.115151384478893
  1-occ =         -0.325015106724218 | -0.299369091895244 |  0.137129564111049
  1-occ =         -0.114143964603077 | -0.328315834733276 |  0.422074874249057
  1-occ =         -0.111564913933756 | -0.149120580257035 |  0.239407624805272
  Roothaan mo_energy =
[-5.07871662e+00 -3.45019396e+00 -3.44957575e+00 -3.44450904e+00
 -1.04422030e+00 -1.04200950e+00 -1.03324543e+00 -3.25015107e-01
 -2.22963346e-01 -1.14143965e-01 -1.11564914e-01 -1.88273183e-02
 -1.85315927e-02  3.20095895e-02  1.32548275e-01  1.39519007e-01
  1.40005159e-01  1.86643253e-01  1.89733264e-01  1.92925227e-01
  1.96778022e-01  2.11698143e-01  6.60326113e-01  7.10005699e-01
  7.10697306e-01  7.20160177e-01  7.21583611e-01  7.30224708e-01
  7.31938312e-01  7.62892473e-01  7.85855766e-01  1.66476662e+00
  1.66607547e+00  1.68030324e+00  1.68476591e+00  1.68889739e+00
  1.69484003e+00  1.69748035e+00  2.45836654e+00  2.61523384e+00
  2.62515029e+00  2.62704480e+00  2.68220678e+00  2.69893865e+00
  2.81042298e+00  2.81118002e+00  2.82631930e+00  5.50606682e+00
  5.50693526e+00  5.51410339e+00  5.51604314e+00  5.52224899e+00
  5.52502774e+00  5.53027531e+00  5.53404642e+00  5.53644665e+00
  5.70890917e+00  5.72747240e+00  5.73596422e+00  5.74005412e+00
  5.75235011e+00  5.75556244e+00  5.75959744e+00  6.80950087e+00
  9.00193734e+00  9.00482487e+00  9.01016808e+00  9.05297021e+00
  9.05611572e+00  1.05715359e+01  1.05782866e+01  1.05827502e+01
  1.55271942e+01  1.55285554e+01  1.55329257e+01  1.55414709e+01
  1.55416646e+01  1.55426626e+01  1.55665506e+01  1.55717883e+01
  1.55730759e+01  1.55771463e+01  1.55782605e+01  1.87870116e+01
  1.87880210e+01  1.87896519e+01  1.87905170e+01  1.87920696e+01
  1.87997040e+01  1.87997663e+01  1.94984740e+01  1.95062537e+01
  1.95078257e+01  1.95175437e+01  1.95179159e+01  1.95212407e+01
  1.95378266e+01  1.95424482e+01  1.95429619e+01]
E1 = -258.0346122907654  Ecoul = 114.0148748446598
cycle= 13 E= -144.019737446106  delta_E= -0.0166  |g|= 0.779  |ddm|= 0.535
    CPU time for cycle= 13     56.27 sec, wall time      0.50 sec

WARN: HOMO 0.125141803914766 >= LUMO -0.243871260418708

                  Roothaan           | alpha              | beta
  Highest 2-occ = -0.623767026954225 |   -0.4999498849629 | -0.456721971559334
  Lowest 0-occ =  -0.243871260418708 | -0.0303187672720034 | 0.0711114798514706
  1-occ =         -0.132853122962749 | -0.0328498423234015 |  0.163805145665781
  1-occ =         -0.0251940234938145 | -0.163205862403847 |  0.178513090915089
  1-occ =          0.125141803914766 | -0.161366238410365 |  0.255756731269192
  Roothaan mo_energy =
[-4.685969   -3.0669737  -3.06386813 -3.06119208 -0.66499128 -0.66043382
 -0.62376703 -0.24387126 -0.13285312 -0.02519402  0.04533084  0.04548233
  0.1251418   0.14855298  0.1873393   0.2138084   0.21450995  0.23406847
  0.24028266  0.24628696  0.24802983  0.2906756   0.81097246  0.85985678
  0.86174525  0.87013557  0.87613786  0.88094943  0.88186716  0.89543384
  0.94540131  1.87730838  1.87846324  1.89176012  1.89435265  1.89643642
  1.90237132  1.90471744  2.62308101  2.89497649  2.8980925   2.91232807
  2.94031682  2.96489749  3.06199346  3.07515712  3.08332187  5.80327225
  5.80356485  5.81012923  5.81398928  5.81584433  5.81940861  5.82055119
  5.82781338  5.82827059  6.0655952   6.0755035   6.08522918  6.08637891
  6.09681434  6.10024252  6.10149151  7.1117898   9.37714782  9.38024971
  9.40582441  9.41555125  9.4255081  10.92225537 10.95885636 10.96209092
 15.89265564 15.89887873 15.90004942 15.91271959 15.92611219 15.94024479
 15.94079195 15.9433046  15.94340892 15.95579969 15.95651274 19.19667273
 19.19803081 19.20354617 19.21280047 19.21436033 19.23860953 19.23865651
 19.8990191  19.90497173 19.91077105 19.92762139 19.93739121 19.95574659
 19.95645406 19.95790237 19.95859104]
E1 = -250.28901477440888  Ecoul = 106.48032091332468
cycle= 14 E= -143.808693861084  delta_E= 0.211  |g|= 0.742  |ddm|= 1.71
    CPU time for cycle= 14    124.05 sec, wall time      1.10 sec

WARN: HOMO 0.0576167115728539 >= LUMO -0.030521384436345

                  Roothaan           | alpha              | beta
  Highest 2-occ = -0.673005664616908 | -0.971385933498628 | -0.940959495163346
  Lowest 0-occ =  -0.030521384436345 | -0.235657392591045 |  0.034688478450188
  1-occ =         -0.191511692255259 | -0.239531549345025 | -0.0834345284205372
  1-occ =         -0.166362103876193 |  -0.54630201830724 | -0.0696481619250607
  1-occ =         0.0576167115728539 | -0.451360050871263 | -0.0438875119577186
  Roothaan mo_energy =
[-4.72397458 -3.10828928 -3.10651924 -3.10488522 -0.70203795 -0.69938043
 -0.67300566 -0.19151169 -0.1663621  -0.03052138  0.03977123  0.0399055
  0.05761671  0.14408584  0.18035042  0.20585582  0.20669664  0.23523298
  0.23960704  0.24134716  0.2456816   0.27320809  0.79460391  0.84356437
  0.8458713   0.854081    0.86008207  0.86061165  0.86484017  0.88032386
  0.92150148  1.85469255  1.85601695  1.86738535  1.87127472  1.87584508
  1.8784032   1.88170471  2.60492383  2.86574855  2.86817008  2.87719409
  2.91117664  2.93372186  3.03748259  3.04537441  3.05177988  5.77525295
  5.77593422  5.77891918  5.77968919  5.78037273  5.78341335  5.78842271
  5.79396484  5.79464385  6.02612126  6.03842723  6.04762226  6.04864089
  6.05978794  6.05995699  6.06207304  7.07821327  9.3381354   9.33916806
  9.3573344   9.37687892  9.38209714 10.8893208  10.91418225 10.91552735
 15.85767806 15.86263095 15.86417171 15.87369711 15.8894967  15.88971969
 15.89006692 15.90215327 15.90255294 15.9096779  15.91096522 19.15536531
 19.15692503 19.15808822 19.16514759 19.16635799 19.18458299 19.18459228
 19.85973813 19.86656563 19.86848589 19.88262604 19.89514669 19.90112552
 19.90180136 19.90850181 19.90896786]
E1 = -261.08688877640265  Ecoul = 116.94335158807388
cycle= 15 E= -144.143537188329  delta_E= -0.335  |g|= 0.685  |ddm|= 1.58
    CPU time for cycle= 15    116.19 sec, wall time      1.14 sec
  HOMO = -0.000600649326863295  LUMO = 0.00584017815542817
                  Roothaan           | alpha              | beta
  Highest 2-occ = -0.667710046749463 | -0.312112305606458 |   -0.2541912413975
  Lowest 0-occ =  0.00584017815542817 | 0.0511320062826506 |  0.088879038133519
  1-occ =         -0.172244379080382 | -0.246981691363782 |  0.280524933341569
  1-occ =         -0.130892064024223 | -0.275136222620187 |  0.393786592509384
  1-occ =         -0.000600649326863295 | -0.259137162308213 |  0.510475861180277
  Roothaan mo_energy =
[-4.74596272e+00 -3.09941195e+00 -3.09522535e+00 -3.09330446e+00
 -6.97068410e-01 -6.78435531e-01 -6.67710047e-01 -1.72244379e-01
 -1.30892064e-01 -6.00649327e-04  5.84017816e-03  4.08044022e-02
  4.33511771e-02  1.48270722e-01  1.81907449e-01  2.08333841e-01
  2.11617659e-01  2.38363575e-01  2.42884531e-01  2.43708560e-01
  2.55900747e-01  2.80079264e-01  7.97314719e-01  8.48119263e-01
  8.54836325e-01  8.58718734e-01  8.60027465e-01  8.66912242e-01
  8.71216765e-01  9.05742221e-01  9.31650195e-01  1.87027628e+00
  1.87088364e+00  1.87926444e+00  1.88216225e+00  1.88548070e+00
  1.89250799e+00  1.89347792e+00  2.61062269e+00  2.87107784e+00
  2.87799015e+00  2.88837149e+00  2.93127521e+00  2.94512378e+00
  3.04254087e+00  3.05802367e+00  3.06600616e+00  5.78621818e+00
  5.79001918e+00  5.79070628e+00  5.79596122e+00  5.80365245e+00
  5.80925053e+00  5.80991342e+00  5.81095071e+00  5.81355349e+00
  6.03880726e+00  6.05437530e+00  6.05637626e+00  6.06140880e+00
  6.06993035e+00  6.07887638e+00  6.08107009e+00  7.08657305e+00
  9.33982045e+00  9.35183245e+00  9.36138113e+00  9.38364346e+00
  9.39572743e+00  1.08984714e+01  1.09139046e+01  1.09298631e+01
  1.58696811e+01  1.58713352e+01  1.58829090e+01  1.58887492e+01
  1.59029873e+01  1.59036787e+01  1.59046016e+01  1.59165163e+01
  1.59188251e+01  1.59238873e+01  1.59247338e+01  1.91604218e+01
  1.91608588e+01  1.91710275e+01  1.91723618e+01  1.91793293e+01
  1.91877807e+01  1.91891957e+01  1.98712048e+01  1.98713092e+01
  1.98879448e+01  1.98955896e+01  1.99006837e+01  1.99093490e+01
  1.99120131e+01  1.99151400e+01  1.99190067e+01]
E1 = -262.00394181851686  Ecoul = 117.88971166515456
cycle= 16 E= -144.114230153362  delta_E= 0.0293  |g|= 0.917  |ddm|= 0.482
    CPU time for cycle= 16    102.32 sec, wall time      0.99 sec

WARN: HOMO -0.00905459748598991 >= LUMO -0.014298269240462

                  Roothaan           | alpha              | beta
  Highest 2-occ = -0.692374390857695 |  -0.25805314271358 | -0.198489389988186
  Lowest 0-occ =  -0.014298269240462 | 0.0585819735078354 | 0.0980772125968963
  1-occ =         -0.266304500395955 | -0.217298511390676 |  0.499067967523853
  1-occ =         -0.105579683560592 | -0.217949890026617 |  0.309061419465882
  1-occ =         -0.00905459748598991 | -0.227717559155631 |  0.473925931720397
  Roothaan mo_energy =
[-4.73859627e+00 -3.12869584e+00 -3.12583034e+00 -3.12160105e+00
 -7.27408771e-01 -7.13887609e-01 -6.92374391e-01 -2.66304500e-01
 -1.05579684e-01 -1.42982692e-02 -9.05459749e-03  3.37435519e-02
  3.54784954e-02  1.49321201e-01  1.72007324e-01  1.98252911e-01
  2.01699963e-01  2.30688143e-01  2.32257154e-01  2.36179104e-01
  2.39977860e-01  2.92298265e-01  7.78325667e-01  8.29005349e-01
  8.32658167e-01  8.37783328e-01  8.42258466e-01  8.43366350e-01
  8.51455958e-01  8.76718862e-01  9.17236044e-01  1.84158067e+00
  1.84275235e+00  1.85057749e+00  1.85127948e+00  1.85574839e+00
  1.86424592e+00  1.86518190e+00  2.59225779e+00  2.84299004e+00
  2.85120855e+00  2.85798215e+00  2.89898933e+00  2.91990352e+00
  3.01842100e+00  3.02670136e+00  3.03696590e+00  5.74968021e+00
  5.75041867e+00  5.75994815e+00  5.76263077e+00  5.76524968e+00
  5.76785945e+00  5.76828355e+00  5.77694791e+00  5.77756107e+00
  6.00527321e+00  6.01866447e+00  6.02627808e+00  6.02967752e+00
  6.04048880e+00  6.04306667e+00  6.04330884e+00  7.06127320e+00
  9.31781040e+00  9.32436873e+00  9.33919242e+00  9.36297619e+00
  9.36863278e+00  1.08724461e+01  1.08910201e+01  1.09034629e+01
  1.58320490e+01  1.58335183e+01  1.58483730e+01  1.58550656e+01
  1.58654350e+01  1.58664942e+01  1.58672925e+01  1.58809600e+01
  1.58839440e+01  1.58890924e+01  1.58895208e+01  1.91388853e+01
  1.91400888e+01  1.91407854e+01  1.91465834e+01  1.91487254e+01
  1.91665698e+01  1.91666132e+01  1.98392483e+01  1.98451724e+01
  1.98503021e+01  1.98628538e+01  1.98746272e+01  1.98807974e+01
  1.98811997e+01  1.98881363e+01  1.98895780e+01]
E1 = -261.1162874757524  Ecoul = 116.96982066174357
cycle= 17 E= -144.146466814009  delta_E= -0.0322  |g|= 0.68  |ddm|= 0.397
    CPU time for cycle= 17     91.18 sec, wall time      0.88 sec
  HOMO = -0.00742666214955643  LUMO = 0.00225048668946227
                  Roothaan           | alpha              | beta
  Highest 2-occ = -0.654412535859056 | -0.317171340586842 | -0.258957585012852
  Lowest 0-occ =  0.00225048668946227 | 0.0501736585888582 | 0.0884879276053375
  1-occ =         -0.261768956544887 | -0.309149186099665 |  0.476435824317061
  1-occ =         -0.0952585671114856 | -0.266057863730559 |  0.263834637326185
  1-occ =         -0.00742666214955643 | -0.201357269215807 |  0.433678965782178
  Roothaan mo_energy =
[-4.69594824e+00 -3.08963372e+00 -3.08669542e+00 -3.08216990e+00
 -6.87334503e-01 -6.73620231e-01 -6.54412536e-01 -2.61768957e-01
 -9.52585671e-02 -7.42666215e-03  2.25048669e-03  3.68794203e-02
  3.90940244e-02  1.54893667e-01  1.81940331e-01  2.05337803e-01
  2.08748291e-01  2.34975723e-01  2.35769198e-01  2.38923906e-01
  2.48229600e-01  2.86473623e-01  7.91105775e-01  8.43961002e-01
  8.46780074e-01  8.52302058e-01  8.55497850e-01  8.58357253e-01
  8.64139623e-01  8.95194998e-01  9.29454079e-01  1.86335307e+00
  1.86393063e+00  1.86868087e+00  1.86931308e+00  1.87286238e+00
  1.88279088e+00  1.88315946e+00  2.60783197e+00  2.87041622e+00
  2.88079985e+00  2.88473541e+00  2.92887811e+00  2.94452573e+00
  3.04579211e+00  3.05041487e+00  3.06415058e+00  5.77909782e+00
  5.77993054e+00  5.79104169e+00  5.79422468e+00  5.79619052e+00
  5.80135521e+00  5.80185836e+00  5.80623544e+00  5.80701796e+00
  6.04296310e+00  6.05657347e+00  6.06180996e+00  6.06646874e+00
  6.07663395e+00  6.07918307e+00  6.07997448e+00  7.09201233e+00
  9.35547208e+00  9.36213378e+00  9.37558904e+00  9.39875707e+00
  9.40510855e+00  1.09105486e+01  1.09266952e+01  1.09400930e+01
  1.58736159e+01  1.58746657e+01  1.58912564e+01  1.58974179e+01
  1.59052803e+01  1.59066076e+01  1.59078950e+01  1.59209436e+01
  1.59242863e+01  1.59286945e+01  1.59287914e+01  1.91815983e+01
  1.91828920e+01  1.91829726e+01  1.91884010e+01  1.91906745e+01
  1.92075812e+01  1.92075896e+01  1.98836483e+01  1.98892940e+01
  1.98940833e+01  1.99057278e+01  1.99169571e+01  1.99225299e+01
  1.99230206e+01  1.99296161e+01  1.99309912e+01]
E1 = -260.7460699739954  Ecoul = 116.58160255241583
cycle= 18 E= -144.16446742158  delta_E= -0.018  |g|= 0.59  |ddm|= 0.161
    CPU time for cycle= 18    103.31 sec, wall time      1.03 sec
  HOMO = 0.00306463691911105  LUMO = 0.0408244300291042
                  Roothaan           | alpha              | beta
  Highest 2-occ = -0.528298231473036 |  -0.34445572266194 | -0.285394607245343
  Lowest 0-occ =  0.0408244300291042 | 0.0469684832219777 | 0.0810799179484266
  1-occ =         -0.150274380739917 | -0.299971964144464 |  0.339351385326902
  1-occ =         -0.104129982521207 | -0.288301557288987 |  0.325719879796284
  1-occ =         0.00306463691911105 | -0.229508455489246 |  0.489231486172732
  Roothaan mo_energy =
[-4.56256110e+00 -2.96322214e+00 -2.95871105e+00 -2.95608238e+00
 -5.52249797e-01 -5.35900471e-01 -5.28298231e-01 -1.50274381e-01
 -1.04129983e-01  3.06463692e-03  4.08244300e-02  4.91857463e-02
  4.98539564e-02  1.72713630e-01  2.12523242e-01  2.29448855e-01
  2.32141407e-01  2.48707078e-01  2.50066949e-01  2.50978109e-01
  2.51957774e-01  2.92578076e-01  8.36811640e-01  8.93101025e-01
  8.94573053e-01  8.98900390e-01  9.05362052e-01  9.07900825e-01
  9.10124996e-01  9.38729195e-01  9.61332468e-01  1.93266331e+00
  1.93474964e+00  1.93525407e+00  1.93709739e+00  1.93876065e+00
  1.94606189e+00  1.94683444e+00  2.66045559e+00  2.96647384e+00
  2.97484266e+00  2.97713164e+00  3.01413781e+00  3.02505957e+00
  3.13175337e+00  3.13810900e+00  3.14663847e+00  5.88284150e+00
  5.88427309e+00  5.88893082e+00  5.89264128e+00  5.89711567e+00
  5.90259803e+00  5.90269531e+00  5.90311403e+00  5.90398833e+00
  6.16469751e+00  6.17659938e+00  6.17847559e+00  6.18322440e+00
  6.19005033e+00  6.19384481e+00  6.19476934e+00  7.19163712e+00
  9.48045567e+00  9.49045731e+00  9.49536856e+00  9.51618276e+00
  9.52052016e+00  1.10371007e+01  1.10419178e+01  1.10587698e+01
  1.60074727e+01  1.60077655e+01  1.60238638e+01  1.60280385e+01
  1.60299237e+01  1.60316583e+01  1.60359113e+01  1.60450811e+01
  1.60483834e+01  1.60522496e+01  1.60523047e+01  1.93190124e+01
  1.93195381e+01  1.93246440e+01  1.93261240e+01  1.93294237e+01
  1.93378291e+01  1.93383220e+01  2.00250093e+01  2.00270291e+01
  2.00397580e+01  2.00450367e+01  2.00473214e+01  2.00521062e+01
  2.00560048e+01  2.00612834e+01  2.00635183e+01]
E1 = -259.89991810717095  Ecoul = 115.67263581474592
cycle= 19 E= -144.227282292425  delta_E= -0.0628  |g|= 0.316  |ddm|= 0.618
    CPU time for cycle= 19     95.56 sec, wall time      0.92 sec
  HOMO = 0.0188334290306051  LUMO = 0.0538935613500279
                  Roothaan           | alpha              | beta
  Highest 2-occ = -0.461948443945651 | -0.395263946119055 |  -0.33225554771418
  Lowest 0-occ =  0.0538935613500279 | 0.0448048856353117 | 0.0786465681094746
  1-occ =         -0.120302784151926 | -0.254974450388076 | 0.0941124898739753
  1-occ =         -0.0653806460172089 | -0.370366992423395 |  0.512963097608832
  1-occ =         0.0188334290306051 | -0.360626049368986 |  0.499158961670322
  Roothaan mo_energy =
[-4.49716243e+00 -2.89915750e+00 -2.89563736e+00 -2.89503279e+00
 -4.74092694e-01 -4.70686547e-01 -4.61948444e-01 -1.20302784e-01
 -6.53806460e-02  1.88334290e-02  5.38935614e-02  5.61040424e-02
  5.69783742e-02  1.79551565e-01  2.31590476e-01  2.43358747e-01
  2.43927073e-01  2.59532160e-01  2.59861730e-01  2.60393757e-01
  2.60759118e-01  2.79002705e-01  8.61452617e-01  9.18360040e-01
  9.22506917e-01  9.24608052e-01  9.34330371e-01  9.35963553e-01
  9.37951416e-01  9.58146617e-01  9.73452874e-01  1.96931969e+00
  1.97320071e+00  1.97378360e+00  1.97481173e+00  1.97674047e+00
  1.98132023e+00  1.98171628e+00  2.68878759e+00  3.01976080e+00
  3.02117414e+00  3.02685585e+00  3.05629825e+00  3.06177190e+00
  3.17713244e+00  3.18525733e+00  3.18675053e+00  5.93757957e+00
  5.93965332e+00  5.94074766e+00  5.94460201e+00  5.94974890e+00
  5.95136006e+00  5.95159503e+00  5.95371661e+00  5.95398718e+00
  6.22638239e+00  6.23748701e+00  6.23881905e+00  6.23958930e+00
  6.24734753e+00  6.25010545e+00  6.25102041e+00  7.24165498e+00
  9.54903066e+00  9.54946238e+00  9.55576133e+00  9.57364511e+00
  9.57595497e+00  1.10981714e+01  1.11088781e+01  1.11094059e+01
  1.60776767e+01  1.60806113e+01  1.60813413e+01  1.60865915e+01
  1.60951108e+01  1.60953951e+01  1.61002624e+01  1.61058204e+01
  1.61065353e+01  1.61106203e+01  1.61116635e+01  1.93913386e+01
  1.93914212e+01  1.93933012e+01  1.93938953e+01  1.93947750e+01
  1.93982864e+01  1.93984413e+01  2.00990356e+01  2.01035099e+01
  2.01037142e+01  2.01100674e+01  2.01121313e+01  2.01135735e+01
  2.01202682e+01  2.01249853e+01  2.01251967e+01]
E1 = -259.8975486630303  Ecoul = 115.6436367278173
cycle= 20 E= -144.253911935213  delta_E= -0.0266  |g|= 0.21  |ddm|= 0.669
    CPU time for cycle= 20    107.75 sec, wall time      1.12 sec
  HOMO = 0.0073589771729959  LUMO = 0.0588276081713708
                  Roothaan           | alpha              | beta
  Highest 2-occ = -0.416654397587511 | -0.388730959881243 | -0.322911784373002
  Lowest 0-occ =  0.0588276081713708 |  0.047737842914789 | 0.0786186318578222
  1-occ =         -0.0980663750257572 | -0.232241084756407 | 0.0538685889544931
  1-occ =         -0.0126711649827533 | -0.413320280080136 |  0.539249625800155
  1-occ =         0.0073589771729959 |  -0.41759187125926 |  0.523419125203412
  Roothaan mo_energy =
[-4.44934068e+00 -2.85137509e+00 -2.85093571e+00 -2.85034756e+00
 -4.23704657e-01 -4.18572526e-01 -4.16654398e-01 -9.80663750e-02
 -1.26711650e-02  7.35897717e-03  5.88276082e-02  6.03498694e-02
  6.05140764e-02  1.75841937e-01  2.46100080e-01  2.51496245e-01
  2.52491894e-01  2.58133862e-01  2.64956743e-01  2.65528949e-01
  2.65679850e-01  2.74864785e-01  8.77406264e-01  9.38976053e-01
  9.39260958e-01  9.41399241e-01  9.54019798e-01  9.54941823e-01
  9.55171305e-01  9.69306161e-01  9.84796175e-01  1.99216519e+00
  1.99745770e+00  1.99746020e+00  1.99838249e+00  2.00174876e+00
  2.00208387e+00  2.00283024e+00  2.70804972e+00  3.05522782e+00
  3.05807608e+00  3.05852529e+00  3.08247117e+00  3.09075368e+00
  3.21163408e+00  3.21287366e+00  3.21592379e+00  5.97571704e+00
  5.97732450e+00  5.97842109e+00  5.97968388e+00  5.98097636e+00
  5.98132376e+00  5.98588814e+00  5.98596803e+00  5.98702611e+00
  6.27003318e+00  6.27973686e+00  6.28080096e+00  6.28206396e+00
  6.28808662e+00  6.28948432e+00  6.29115395e+00  7.27794292e+00
  9.59502082e+00  9.59934109e+00  9.59995185e+00  9.61514249e+00
  9.61969044e+00  1.11469437e+01  1.11482244e+01  1.11543727e+01
  1.61271907e+01  1.61279148e+01  1.61306144e+01  1.61337354e+01
  1.61356561e+01  1.61367096e+01  1.61461885e+01  1.61498767e+01
  1.61507150e+01  1.61528285e+01  1.61534574e+01  1.94413272e+01
  1.94413552e+01  1.94452896e+01  1.94454707e+01  1.94466797e+01
  1.94490389e+01  1.94491363e+01  2.01508269e+01  2.01537413e+01
  2.01561854e+01  2.01587800e+01  2.01616038e+01  2.01627283e+01
  2.01711944e+01  2.01715116e+01  2.01738564e+01]
E1 = -259.12126889695634  Ecoul = 114.85845165614197
cycle= 21 E= -144.262817240814  delta_E= -0.00891  |g|= 0.0527  |ddm|= 0.351
    CPU time for cycle= 21     96.57 sec, wall time      0.92 sec
  HOMO = -0.0084700088564718  LUMO = 0.0592326936584212
                  Roothaan           | alpha              | beta
  Highest 2-occ = -0.420579687376221 | -0.428557694581965 | -0.362462623829652
  Lowest 0-occ =  0.0592326936584212 | 0.0456489530829173 | 0.0777646018791947
  1-occ =         -0.0992079937422559 | -0.237277372575258 | 0.0477815160391314
  1-occ =         -0.0114778687593995 | -0.469928100542913 |  0.480253736171629
  1-occ =         -0.0084700088564718 | -0.467459313746562 |  0.482044088143415
  Roothaan mo_energy =
[-4.45626205e+00 -2.85748062e+00 -2.85704653e+00 -2.85663251e+00
 -4.26170272e-01 -4.23121808e-01 -4.20579687e-01 -9.92079937e-02
 -1.14778688e-02 -8.47000886e-03  5.92326937e-02  6.03990395e-02
  6.05643302e-02  1.74617262e-01  2.48428696e-01  2.51436974e-01
  2.51816931e-01  2.65302023e-01  2.65408133e-01  2.65504173e-01
  2.70165461e-01  2.71950156e-01  8.74568397e-01  9.38179452e-01
  9.38529249e-01  9.39407531e-01  9.52696146e-01  9.53255677e-01
  9.53693751e-01  9.70495303e-01  9.77383373e-01  1.99018140e+00
  1.99555120e+00  1.99575739e+00  1.99593971e+00  1.99986555e+00
  1.99996603e+00  2.00036003e+00  2.70587190e+00  3.05207532e+00
  3.05356820e+00  3.05460083e+00  3.08040339e+00  3.08386043e+00
  3.20861767e+00  3.20979108e+00  3.21163104e+00  5.97244350e+00
  5.97447541e+00  5.97487683e+00  5.97526948e+00  5.97654922e+00
  5.97716649e+00  5.98175384e+00  5.98259955e+00  5.98311410e+00
  6.26480931e+00  6.27503209e+00  6.27579867e+00  6.27667224e+00
  6.28397970e+00  6.28423230e+00  6.28479085e+00  7.27312854e+00
  9.58992204e+00  9.59218734e+00  9.59332487e+00  9.61036643e+00
  9.61168252e+00  1.11415049e+01  1.11431794e+01  1.11464200e+01
  1.61231397e+01  1.61233736e+01  1.61244798e+01  1.61283202e+01
  1.61287662e+01  1.61295029e+01  1.61415988e+01  1.61434181e+01
  1.61443617e+01  1.61471113e+01  1.61473389e+01  1.94356173e+01
  1.94357201e+01  1.94381311e+01  1.94383661e+01  1.94395152e+01
  1.94398523e+01  1.94401563e+01  2.01452674e+01  2.01493395e+01
  2.01501933e+01  2.01505059e+01  2.01535841e+01  2.01544947e+01
  2.01637651e+01  2.01652019e+01  2.01663960e+01]
E1 = -259.140247371565  Ecoul = 114.87804352263493
cycle= 22 E= -144.26220384893  delta_E= 0.000613  |g|= 0.0541  |ddm|= 0.336
    CPU time for cycle= 22     53.65 sec, wall time      0.51 sec
  HOMO = -0.00507858282156194  LUMO = 0.0616073419023611
                  Roothaan           | alpha              | beta
  Highest 2-occ =  -0.40504090167786 | -0.428157080806362 | -0.362396804232446
  Lowest 0-occ =  0.0616073419023611 | 0.0465072588927158 | 0.0775429827022985
  1-occ =         -0.0972738308884621 | -0.237596625188201 | 0.0465123121644502
  1-occ =         -0.0061797923407872 | -0.463583685722484 |  0.486272456578554
  1-occ =         -0.00507858282156194 | -0.470370801963398 |  0.487205059685884
  Roothaan mo_energy =
[-4.44040830e+00 -2.84237090e+00 -2.84169834e+00 -2.84150681e+00
 -4.10202815e-01 -4.07905306e-01 -4.05040902e-01 -9.72738309e-02
 -6.17979234e-03 -5.07858282e-03  6.16073419e-02  6.18451805e-02
  6.19106394e-02  1.76404033e-01  2.54293018e-01  2.54613621e-01
  2.54949678e-01  2.67375415e-01  2.67611815e-01  2.67760503e-01
  2.72782038e-01  2.73839502e-01  8.80423731e-01  9.44346550e-01
  9.45143222e-01  9.45759490e-01  9.59229151e-01  9.59820615e-01
  9.60632735e-01  9.79232894e-01  9.80819924e-01  1.99883676e+00
  2.00408706e+00  2.00443114e+00  2.00468226e+00  2.00850123e+00
  2.00873758e+00  2.00876956e+00  2.71255465e+00  3.06390722e+00
  3.06497569e+00  3.06657864e+00  3.09191790e+00  3.09334707e+00
  3.21889488e+00  3.22089069e+00  3.22207080e+00  5.98488466e+00
  5.98686358e+00  5.98722377e+00  5.98763702e+00  5.98873227e+00
  5.98952182e+00  5.99381955e+00  5.99496411e+00  5.99533509e+00
  6.27946685e+00  6.28926316e+00  6.29012064e+00  6.29092459e+00
  6.29789808e+00  6.29834679e+00  6.29849855e+00  7.28525280e+00
  9.60546528e+00  9.60680570e+00  9.60866216e+00  9.62503005e+00
  9.62563786e+00  1.11558640e+01  1.11585540e+01  1.11604429e+01
  1.61385188e+01  1.61393371e+01  1.61396280e+01  1.61436319e+01
  1.61444021e+01  1.61446389e+01  1.61568374e+01  1.61579570e+01
  1.61593562e+01  1.61617436e+01  1.61621653e+01  1.94526518e+01
  1.94527291e+01  1.94542454e+01  1.94546250e+01  1.94552147e+01
  1.94566053e+01  1.94566794e+01  2.01619000e+01  2.01660736e+01
  2.01664412e+01  2.01670774e+01  2.01696319e+01  2.01708066e+01
  2.01795721e+01  2.01813669e+01  2.01821118e+01]
E1 = -259.0173149876522  Ecoul = 114.7527063316314
cycle= 23 E= -144.264608656021  delta_E= -0.0024  |g|= 0.0146  |ddm|= 0.236
    CPU time for cycle= 23    110.59 sec, wall time      1.02 sec
  HOMO = -0.00357034079819251  LUMO = 0.0619484960646412
                  Roothaan           | alpha              | beta
  Highest 2-occ = -0.403335455649318 | -0.433794594901383 | -0.367814142223626
  Lowest 0-occ =  0.0619484960646412 | 0.0466935370603629 | 0.0774418290010982
  1-occ =         -0.0964303387941846 | -0.237500324034991 | 0.0455528297821568
  1-occ =         -0.00394309349452724 | -0.479848599724933 |  0.479302263930146
  1-occ =         -0.00357034079819251 | -0.480777177952883 |  0.479082796123122
  Roothaan mo_energy =
[-4.43890131e+00 -2.84079957e+00 -2.84042144e+00 -2.84005497e+00
 -4.07892046e-01 -4.05593803e-01 -4.03335456e-01 -9.64303388e-02
 -3.94309349e-03 -3.57034080e-03  6.19484961e-02  6.20760092e-02
  6.22214803e-02  1.74727183e-01  2.54888717e-01  2.55156295e-01
  2.55481962e-01  2.67762917e-01  2.67971945e-01  2.68142653e-01
  2.71879842e-01  2.72885114e-01  8.81106445e-01  9.45303573e-01
  9.45973165e-01  9.46616358e-01  9.60242858e-01  9.60924921e-01
  9.61532465e-01  9.80907189e-01  9.81327898e-01  2.00013051e+00
  2.00541486e+00  2.00569164e+00  2.00598290e+00  2.00987323e+00
  2.00994231e+00  2.01006634e+00  2.71337416e+00  3.06534870e+00
  3.06654478e+00  3.06772048e+00  3.09362677e+00  3.09394019e+00
  3.22045983e+00  3.22188851e+00  3.22328794e+00  5.98646482e+00
  5.98867148e+00  5.98875603e+00  5.98908149e+00  5.99043854e+00
  5.99098140e+00  5.99546692e+00  5.99632443e+00  5.99676804e+00
  6.28110313e+00  6.29088755e+00  6.29164427e+00  6.29239139e+00
  6.29947831e+00  6.29973372e+00  6.29982560e+00  7.28644205e+00
  9.60693849e+00  9.60826985e+00  9.60973808e+00  9.62643710e+00
  9.62659384e+00  1.11575385e+01  1.11596116e+01  1.11615415e+01
  1.61403019e+01  1.61407770e+01  1.61413155e+01  1.61453528e+01
  1.61458928e+01  1.61462652e+01  1.61584602e+01  1.61595558e+01
  1.61609041e+01  1.61629886e+01  1.61633430e+01  1.94541858e+01
  1.94542836e+01  1.94557201e+01  1.94559512e+01  1.94565459e+01
  1.94576208e+01  1.94577001e+01  2.01633841e+01  2.01678108e+01
  2.01678431e+01  2.01684583e+01  2.01712329e+01  2.01721036e+01
  2.01810816e+01  2.01825114e+01  2.01832635e+01]
E1 = -258.96815205580066  Ecoul = 114.70326787781681
cycle= 24 E= -144.264884177984  delta_E= -0.000276  |g|= 0.00491  |ddm|= 0.0893
    CPU time for cycle= 24    121.95 sec, wall time      1.15 sec
  HOMO = -0.00341850422343122  LUMO = 0.0619741812539591
                  Roothaan           | alpha              | beta
  Highest 2-occ =  -0.40346303340046 | -0.436627920953256 | -0.370747046733021
  Lowest 0-occ =  0.0619741812539591 | 0.0464932559190531 | 0.0773727082975529
  1-occ =         -0.0964343618930708 | -0.238060997799919 | 0.0449908312208806
  1-occ =         -0.00345407287494429 | -0.483088990400789 |   0.47601850586095
  1-occ =         -0.00341850422343122 | -0.483223385110483 |  0.476399769407238
  Roothaan mo_energy =
[-4.43914460e+00 -2.84097061e+00 -2.84063983e+00 -2.84031847e+00
 -4.07425617e-01 -4.05422564e-01 -4.03463033e-01 -9.64343619e-02
 -3.45407287e-03 -3.41850422e-03  6.19741813e-02  6.21158420e-02
  6.22132736e-02  1.73899630e-01  2.54912749e-01  2.55176298e-01
  2.55434355e-01  2.67843990e-01  2.68000507e-01  2.68184751e-01
  2.72153120e-01  2.72297928e-01  8.80992262e-01  9.45324825e-01
  9.45940954e-01  9.46482077e-01  9.60359121e-01  9.60906267e-01
  9.61495766e-01  9.80664000e-01  9.80735908e-01  1.99999010e+00
  2.00533456e+00  2.00558394e+00  2.00583938e+00  2.00976843e+00
  2.00990248e+00  2.00994163e+00  2.71329988e+00  3.06541880e+00
  3.06642806e+00  3.06749169e+00  3.09344676e+00  3.09353550e+00
  3.22045529e+00  3.22178512e+00  3.22293791e+00  5.98625624e+00
  5.98853309e+00  5.98853974e+00  5.98889177e+00  5.99026692e+00
  5.99072005e+00  5.99527616e+00  5.99604553e+00  5.99643246e+00
  6.28093956e+00  6.29075282e+00  6.29141859e+00  6.29207330e+00
  6.29922140e+00  6.29944232e+00  6.29951701e+00  7.28626792e+00
  9.60700811e+00  9.60816996e+00  9.60943882e+00  9.62624456e+00
  9.62634136e+00  1.11576180e+01  1.11594444e+01  1.11611061e+01
  1.61400910e+01  1.61405303e+01  1.61409726e+01  1.61451598e+01
  1.61456368e+01  1.61459651e+01  1.61583321e+01  1.61591908e+01
  1.61606840e+01  1.61624549e+01  1.61628240e+01  1.94541961e+01
  1.94543028e+01  1.94556073e+01  1.94557637e+01  1.94563246e+01
  1.94571811e+01  1.94572607e+01  2.01631626e+01  2.01676800e+01
  2.01676848e+01  2.01681730e+01  2.01710980e+01  2.01717555e+01
  2.01809060e+01  2.01821136e+01  2.01828051e+01]
E1 = -258.95634177602716  Ecoul = 114.69142142328892
cycle= 25 E= -144.264920352738  delta_E= -3.62e-05  |g|= 0.00331  |ddm|= 0.028
    CPU time for cycle= 25     58.71 sec, wall time      0.57 sec
  HOMO = -0.00388526288060763  LUMO = 0.061939959161305
                  Roothaan           | alpha              | beta
  Highest 2-occ = -0.404317021582199 | -0.437432784176885 | -0.371633814733567
  Lowest 0-occ =   0.061939959161305 | 0.0465041855232758 | 0.0773640420097824
  1-occ =         -0.0966317849381843 | -0.238199555051881 | 0.0448981441797105
  1-occ =         -0.00397535172498803 | -0.483847653216852 |  0.475682023820121
  1-occ =         -0.00388526288060763 | -0.484122643753162 |   0.47568410209807
  Roothaan mo_energy =
[-4.43986185e+00 -2.84161038e+00 -2.84132321e+00 -2.84104344e+00
 -4.07741141e-01 -4.06020199e-01 -4.04317022e-01 -9.66317849e-02
 -3.97535172e-03 -3.88526288e-03  6.19399592e-02  6.20479253e-02
  6.21476638e-02  1.73862720e-01  2.54807032e-01  2.55050304e-01
  2.55260871e-01  2.67794469e-01  2.67940733e-01  2.68094057e-01
  2.72313788e-01  2.72398703e-01  8.80731129e-01  9.45137568e-01
  9.45668802e-01  9.46150319e-01  9.60165274e-01  9.60653496e-01
  9.61155638e-01  9.80274518e-01  9.80383884e-01  1.99958853e+00
  2.00496514e+00  2.00519194e+00  2.00541543e+00  2.00940258e+00
  2.00948548e+00  2.00954846e+00  2.71300400e+00  3.06504727e+00
  3.06593000e+00  3.06684325e+00  3.09296289e+00  3.09298484e+00
  3.22015071e+00  3.22128766e+00  3.22230642e+00  5.98568407e+00
  5.98799762e+00  5.98802219e+00  5.98830341e+00  5.98975708e+00
  5.99009745e+00  5.99476160e+00  5.99540910e+00  5.99576728e+00
  6.28029754e+00  6.29019417e+00  6.29077788e+00  6.29134313e+00
  6.29860415e+00  6.29877583e+00  6.29885503e+00  7.28572489e+00
  9.60653778e+00  9.60753194e+00  9.60863347e+00  9.62561930e+00
  9.62569305e+00  1.11572190e+01  1.11588118e+01  1.11602292e+01
  1.61394401e+01  1.61398320e+01  1.61402023e+01  1.61445384e+01
  1.61449482e+01  1.61452412e+01  1.61578014e+01  1.61584615e+01
  1.61600908e+01  1.61615729e+01  1.61619470e+01  1.94536813e+01
  1.94537970e+01  1.94549355e+01  1.94550523e+01  1.94555578e+01
  1.94562745e+01  1.94563432e+01  2.01624349e+01  2.01670147e+01
  2.01670241e+01  2.01674410e+01  2.01704570e+01  2.01709558e+01
  2.01802801e+01  2.01813058e+01  2.01819204e+01]
E1 = -258.9683479641485  Ecoul = 114.70340681631454
cycle= 26 E= -144.264941147834  delta_E= -2.08e-05  |g|= 0.00253  |ddm|= 0.0146
    CPU time for cycle= 26    127.47 sec, wall time      1.11 sec
  HOMO = -0.00372709073597093  LUMO = 0.0619733929254035
                  Roothaan           | alpha              | beta
  Highest 2-occ = -0.404482413506417 | -0.436944526969662 |  -0.37120741701652
  Lowest 0-occ =  0.0619733929254035 | 0.0465670796914054 | 0.0773825557037319
  1-occ =         -0.096592769428058 | -0.238089078725946 | 0.0450201467364729
  1-occ =         -0.00378095144904402 | -0.483407584362545 |  0.476402962173542
  1-occ =         -0.00372709073597093 | -0.483413079553997 |  0.476428585316969
  Roothaan mo_energy =
[-4.43962744e+00 -2.84132713e+00 -2.84109120e+00 -2.84088778e+00
 -4.07094939e-01 -4.05779765e-01 -4.04482414e-01 -9.65927694e-02
 -3.78095145e-03 -3.72709074e-03  6.19733929e-02  6.20625586e-02
  6.21351470e-02  1.73958437e-01  2.54887476e-01  2.55072432e-01
  2.55235693e-01  2.67853187e-01  2.67960113e-01  2.68087141e-01
  2.72173320e-01  2.72319621e-01  8.80793538e-01  9.45312472e-01
  9.45735665e-01  9.46095044e-01  9.60364932e-01  9.60737060e-01
  9.61128789e-01  9.80336284e-01  9.80422313e-01  1.99967317e+00
  2.00510242e+00  2.00528425e+00  2.00546095e+00  2.00951175e+00
  2.00959032e+00  2.00962131e+00  2.71308728e+00  3.06542189e+00
  3.06609697e+00  3.06679962e+00  3.09304468e+00  3.09309422e+00
  3.22053281e+00  3.22141832e+00  3.22219249e+00  5.98583259e+00
  5.98820278e+00  5.98822034e+00  5.98843897e+00  5.98996967e+00
  5.99018615e+00  5.99499070e+00  5.99547360e+00  5.99576860e+00
  6.28051563e+00  6.29052792e+00  6.29097186e+00  6.29141509e+00
  6.29881656e+00  6.29895396e+00  6.29900456e+00  7.28589983e+00
  9.60702810e+00  9.60780006e+00  9.60862688e+00  9.62584488e+00
  9.62589595e+00  1.11578109e+01  1.11590197e+01  1.11601116e+01
  1.61397429e+01  1.61400489e+01  1.61403275e+01  1.61448686e+01
  1.61451815e+01  1.61454102e+01  1.61582273e+01  1.61586400e+01
  1.61604617e+01  1.61615269e+01  1.61618873e+01  1.94542380e+01
  1.94543705e+01  1.94552842e+01  1.94553369e+01  1.94557703e+01
  1.94562553e+01  1.94563103e+01  2.01627010e+01  2.01673571e+01
  2.01673828e+01  2.01676746e+01  2.01708218e+01  2.01711214e+01
  2.01806926e+01  2.01814393e+01  2.01819437e+01]
E1 = -258.9605273549579  Ecoul = 114.69556474592127
cycle= 27 E= -144.264962609037  delta_E= -2.15e-05  |g|= 0.00199  |ddm|= 0.0138
    CPU time for cycle= 27    103.40 sec, wall time      1.00 sec
  HOMO = -0.00367878396882452  LUMO = 0.0620108365612091
                  Roothaan           | alpha              | beta
  Highest 2-occ = -0.405036940490585 | -0.437658855257402 | -0.372057186858306
  Lowest 0-occ =  0.0620108365612091 | 0.0465891573265393 | 0.0773793530059157
  1-occ =         -0.0965876761019003 |  -0.23816763093488 | 0.0449578371636916
  1-occ =         -0.00379458705484636 | -0.483825313862511 |  0.475951004170846
  1-occ =         -0.00367878396882452 | -0.483868127103926 |  0.475912994313139
  Roothaan mo_energy =
[-4.43966381e+00 -2.84127128e+00 -2.84112949e+00 -2.84100081e+00
 -4.06603134e-01 -4.05857163e-01 -4.05036940e-01 -9.65876761e-02
 -3.79458705e-03 -3.67878397e-03  6.20108366e-02  6.20559240e-02
  6.21107002e-02  1.73970794e-01  2.54955796e-01  2.55065203e-01
  2.55166430e-01  2.67894539e-01  2.67971697e-01  2.68039138e-01
  2.72217697e-01  2.72301320e-01  8.80782254e-01  9.45469696e-01
  9.45711501e-01  9.45945421e-01  9.60500353e-01  9.60743521e-01
  9.60965998e-01  9.80336772e-01  9.80420536e-01  1.99966949e+00
  2.00516313e+00  2.00528058e+00  2.00539640e+00  2.00954183e+00
  2.00956880e+00  2.00960280e+00  2.71307835e+00  3.06566850e+00
  3.06609133e+00  3.06649969e+00  3.09304061e+00  3.09306662e+00
  3.22086180e+00  3.22136872e+00  3.22186810e+00  5.98582232e+00
  5.98823977e+00  5.98829650e+00  5.98838723e+00  5.99003506e+00
  5.99010911e+00  5.99511169e+00  5.99537863e+00  5.99558533e+00
  6.28049905e+00  6.29068095e+00  6.29095341e+00  6.29122173e+00
  6.29884311e+00  6.29890205e+00  6.29895149e+00  7.28587600e+00
  9.60731057e+00  9.60777790e+00  9.60826411e+00  9.62582858e+00
  9.62584303e+00  1.11582520e+01  1.11589630e+01  1.11596286e+01
  1.61398395e+01  1.61400172e+01  1.61401920e+01  1.61449927e+01
  1.61451678e+01  1.61453202e+01  1.61584383e+01  1.61586023e+01
  1.61606812e+01  1.61612534e+01  1.61615402e+01  1.94545496e+01
  1.94547221e+01  1.94552783e+01  1.94553658e+01  1.94556449e+01
  1.94558586e+01  1.94558773e+01  2.01626690e+01  2.01674102e+01
  2.01674488e+01  2.01675988e+01  2.01708900e+01  2.01709989e+01
  2.01808849e+01  2.01813042e+01  2.01816300e+01]
E1 = -258.9612097564509  Ecoul = 114.69622698980787
cycle= 28 E= -144.264982766643  delta_E= -2.02e-05  |g|= 0.00126  |ddm|= 0.0156
    CPU time for cycle= 28    107.36 sec, wall time      1.02 sec
  HOMO = -0.00362822635001616  LUMO = 0.0620550328851679
                  Roothaan           | alpha              | beta
  Highest 2-occ = -0.405700743875956 | -0.438043757603213 | -0.372617143871142
  Lowest 0-occ =  0.0620550328851679 | 0.0466388150350377 | 0.0773853852569045
  1-occ =          -0.09656210841386 | -0.238166885357926 | 0.0449599136579448
  1-occ =         -0.00374824875895244 | -0.483798827176612 |  0.475962589446187
  1-occ =         -0.00362822635001616 | -0.483788062386112 |  0.475891915857798
  Roothaan mo_energy =
[-4.43962587e+00 -2.84112768e+00 -2.84109455e+00 -2.84107002e+00
 -4.06005198e-01 -4.05927882e-01 -4.05700744e-01 -9.65621084e-02
 -3.74824876e-03 -3.62822635e-03  6.20550329e-02  6.20656525e-02
  6.20767661e-02  1.74000299e-01  2.55059199e-01  2.55077452e-01
  2.55100672e-01  2.67948046e-01  2.67971454e-01  2.67984302e-01
  2.72270094e-01  2.72308833e-01  8.80810335e-01  9.45692835e-01
  9.45733099e-01  9.45789964e-01  9.60693252e-01  9.60751020e-01
  9.60794881e-01  9.80442149e-01  9.80480898e-01  1.99972927e+00
  2.00530106e+00  2.00533503e+00  2.00536682e+00  2.00961562e+00
  2.00962043e+00  2.00962349e+00  2.71310442e+00  3.06602671e+00
  3.06611379e+00  3.06618893e+00  3.09313949e+00  3.09315083e+00
  3.22131282e+00  3.22140596e+00  3.22151375e+00  5.98589350e+00
  5.98837968e+00  5.98840074e+00  5.98841344e+00  5.99014496e+00
  5.99014789e+00  5.99535921e+00  5.99540847e+00  5.99545762e+00
  6.28054270e+00  6.29095059e+00  6.29100489e+00  6.29105723e+00
  6.29894837e+00  6.29895354e+00  6.29896651e+00  7.28590770e+00
  9.60769678e+00  9.60778831e+00  9.60786619e+00  9.62585699e+00
  9.62586910e+00  1.11588421e+01  1.11589604e+01  1.11590943e+01
  1.61400448e+01  1.61400738e+01  1.61401124e+01  1.61452106e+01
  1.61452377e+01  1.61452724e+01  1.61586534e+01  1.61586666e+01
  1.61610794e+01  1.61611685e+01  1.61612413e+01  1.94548579e+01
  1.94551964e+01  1.94552874e+01  1.94553774e+01  1.94555210e+01
  1.94555413e+01  1.94555585e+01  2.01626930e+01  2.01675154e+01
  2.01675450e+01  2.01675542e+01  2.01709699e+01  2.01709810e+01
  2.01812148e+01  2.01812787e+01  2.01813447e+01]
E1 = -258.96343806892105  Ecoul = 114.69844457029038
[...]
  5.98834653e+00  5.98835489e+00  5.98836194e+00  5.99010151e+00
  5.99010210e+00  5.99534151e+00  5.99536120e+00  5.99538141e+00
  6.28050649e+00  6.29094518e+00  6.29096478e+00  6.29098613e+00
  6.29891234e+00  6.29891509e+00  6.29891720e+00  7.28588254e+00
  9.60773687e+00  9.60776600e+00  9.60779102e+00  9.62584070e+00
  9.62584531e+00  1.11589009e+01  1.11589444e+01  1.11589849e+01
  1.61400240e+01  1.61400361e+01  1.61400474e+01  1.61451878e+01
  1.61451987e+01  1.61452082e+01  1.61586155e+01  1.61586168e+01
  1.61610855e+01  1.61611143e+01  1.61611421e+01  1.94548468e+01
  1.94552413e+01  1.94552653e+01  1.94552927e+01  1.94555077e+01
  1.94555141e+01  1.94555188e+01  2.01626632e+01  2.01675021e+01
  2.01675067e+01  2.01675148e+01  2.01709410e+01  2.01709461e+01
  2.01812237e+01  2.01812447e+01  2.01812636e+01]
E1 = -258.9640170799561  Ecoul = 114.6990234861162
cycle= 30 E= -144.26499359384  delta_E= -9.52e-08  |g|= 0.000383  |ddm|= 0.00375
    CPU time for cycle= 30    120.38 sec, wall time      1.09 sec
  HOMO = -0.00374624910434199  LUMO = 0.062055402007348
                  Roothaan           | alpha              | beta
  Highest 2-occ = -0.405839662462615 | -0.438398682041557 | -0.373185020698545
  Lowest 0-occ =   0.062055402007348 | 0.0466992843205451 | 0.0774100559192234
  1-occ =         -0.0965854159106046 | -0.238132625694487 | 0.0449752742979043
  1-occ =         -0.00375682289896602 | -0.483600072657403 |  0.476172383333644
  1-occ =         -0.00374624910434199 | -0.483613117108341 |  0.476183527527572
  Roothaan mo_energy =
[-4.43964967e+00 -2.84113264e+00 -2.84112282e+00 -2.84111545e+00
 -4.05907271e-01 -4.05868845e-01 -4.05839662e-01 -9.65854159e-02
 -3.75682290e-03 -3.74624910e-03  6.20554020e-02  6.20579898e-02
  6.20617482e-02  1.73954458e-01  2.55065478e-01  2.55069930e-01
  2.55075503e-01  2.67955041e-01  2.67961863e-01  2.67966397e-01
  2.72287503e-01  2.72292611e-01  8.80800197e-01  9.45707586e-01
  9.45719486e-01  9.45733766e-01  9.60714021e-01  9.60731172e-01
  9.60742305e-01  9.80428495e-01  9.80435857e-01  1.99969424e+00
  2.00528285e+00  2.00529815e+00  2.00531296e+00  2.00958067e+00
  2.00958227e+00  2.00958406e+00  2.71308819e+00  3.06606231e+00
  3.06608422e+00  3.06610027e+00  3.09311360e+00  3.09311630e+00
  3.22135738e+00  3.22138127e+00  3.22140790e+00  5.98585181e+00
  5.98835044e+00  5.98835673e+00  5.98836161e+00  5.99010321e+00
  5.99010380e+00  5.99534940e+00  5.99536252e+00  5.99537651e+00
  6.28051023e+00  6.29095544e+00  6.29096819e+00  6.29098206e+00
  6.29891652e+00  6.29891803e+00  6.29891871e+00  7.28588574e+00
  9.60775364e+00  9.60777019e+00  9.60778358e+00  9.62584469e+00
  9.62584900e+00  1.11589228e+01  1.11589487e+01  1.11589715e+01
  1.61400326e+01  1.61400403e+01  1.61400470e+01  1.61451959e+01
  1.61452027e+01  1.61452080e+01  1.61586191e+01  1.61586207e+01
  1.61611002e+01  1.61611171e+01  1.61611343e+01  1.94548529e+01
  1.94552600e+01  1.94552701e+01  1.94552850e+01  1.94555152e+01
  1.94555187e+01  1.94555214e+01  2.01626685e+01  2.01675093e+01
  2.01675118e+01  2.01675180e+01  2.01709465e+01  2.01709507e+01
  2.01812376e+01  2.01812494e+01  2.01812588e+01]
E1 = -258.9636723523022  Ecoul = 114.69867868635386
cycle= 31 E= -144.264993665948  delta_E= -7.21e-08  |g|= 0.000335  |ddm|= 0.00389
    CPU time for cycle= 31    107.13 sec, wall time      0.97 sec
  HOMO = -0.0037437228356787  LUMO = 0.0620569674310497
                  Roothaan           | alpha              | beta
  Highest 2-occ = -0.405850837346833 | -0.438433030639191 |  -0.37322553606728
  Lowest 0-occ =  0.0620569674310497 | 0.0467005309266012 | 0.0774087428784015
  1-occ =         -0.0965847594394134 | -0.238136085840759 | 0.0449692774297222
  1-occ =         -0.00375184683729762 | -0.483622168037208 |  0.476147562290105
  1-occ =         -0.0037437228356787 | -0.483623553495981 |  0.476143373791104
  Roothaan mo_energy =
[-4.43964376e+00 -2.84112320e+00 -2.84111841e+00 -2.84111371e+00
 -4.05879713e-01 -4.05862614e-01 -4.05850837e-01 -9.65847594e-02
 -3.75184684e-03 -3.74372284e-03  6.20569674e-02  6.20581899e-02
  6.20602149e-02  1.73958145e-01  2.55068973e-01  2.55070955e-01
  2.55073664e-01  2.67957613e-01  2.67961421e-01  2.67964192e-01
  2.72276203e-01  2.72283917e-01  8.80802824e-01  9.45715495e-01
  9.45721085e-01  9.45729112e-01  9.60723218e-01  9.60731725e-01
  9.60737988e-01  9.80429695e-01  9.80436096e-01  1.99969683e+00
  2.00528993e+00  2.00530088e+00  2.00531121e+00  2.00958361e+00
  2.00958490e+00  2.00958714e+00  2.71309026e+00  3.06607795e+00
  3.06608726e+00  3.06609437e+00  3.09311672e+00  3.09311722e+00
  3.22137434e+00  3.22138509e+00  3.22139860e+00  5.98585711e+00
  5.98835794e+00  5.98836176e+00  5.98836477e+00  5.99010843e+00
  5.99010889e+00  5.99536074e+00  5.99536733e+00  5.99537502e+00
  6.28051647e+00  6.29096776e+00  6.29097402e+00  6.29098022e+00
  6.29892237e+00  6.29892246e+00  6.29892342e+00  7.28588976e+00
  9.60776814e+00  9.60777369e+00  9.60777586e+00  9.62584748e+00
  9.62585061e+00  1.11589431e+01  1.11589520e+01  1.11589590e+01
  1.61400443e+01  1.61400473e+01  1.61400500e+01  1.61452069e+01
  1.61452095e+01  1.61452113e+01  1.61586257e+01  1.61586271e+01
  1.61611172e+01  1.61611230e+01  1.61611300e+01  1.94548571e+01
  1.94552714e+01  1.94552762e+01  1.94552789e+01  1.94555202e+01
  1.94555222e+01  1.94555236e+01  2.01626744e+01  2.01675161e+01
  2.01675181e+01  2.01675219e+01  2.01709527e+01  2.01709555e+01
  2.01812507e+01  2.01812546e+01  2.01812554e+01]
E1 = -258.9631568856106  Ecoul = 114.6981629516792
cycle= 32 E= -144.264993933931  delta_E= -2.68e-07  |g|= 9.26e-05  |ddm|= 0.00225
    CPU time for cycle= 32     91.59 sec, wall time      0.79 sec
  HOMO = -0.00375989134902723  LUMO = 0.0620560552672117
                  Roothaan           | alpha              | beta
  Highest 2-occ =  -0.40586527747785 | -0.438472975457173 | -0.373269027048884
  Lowest 0-occ =  0.0620560552672117 |  0.046700064965545 |  0.077407605676987
  1-occ =         -0.0965888583725159 | -0.238141970020379 | 0.0449623743345848
  1-occ =         -0.00376410479405882 | -0.483641711103754 |  0.476114512735044
  1-occ =         -0.00375989134902723 | -0.483648252067581 |  0.476116998271825
  Roothaan mo_energy =
[-4.43965387e+00 -2.84113117e+00 -2.84112886e+00 -2.84112565e+00
 -4.05874825e-01 -4.05869598e-01 -4.05865277e-01 -9.65888584e-02
 -3.76410479e-03 -3.75989135e-03  6.20560553e-02  6.20569860e-02
  6.20580241e-02  1.73958620e-01  2.55067877e-01  2.55068873e-01
  2.55070214e-01  2.67957966e-01  2.67959523e-01  2.67961428e-01
  2.72278737e-01  2.72280190e-01  8.80799830e-01  9.45714020e-01
  9.45717347e-01  9.45721446e-01  9.60723387e-01  9.60726466e-01
  9.60730387e-01  9.80425321e-01  9.80428733e-01  1.99968994e+00
  2.00528650e+00  2.00529388e+00  2.00530079e+00  2.00957687e+00
  2.00957824e+00  2.00957977e+00  2.71308571e+00  3.06607584e+00
  3.06607861e+00  3.06608259e+00  3.09310684e+00  3.09310903e+00
  3.22137276e+00  3.22137822e+00  3.22138515e+00  5.98584836e+00
  5.98835065e+00  5.98835240e+00  5.98835490e+00  5.99009962e+00
  5.99009992e+00  5.99535481e+00  5.99535836e+00  5.99536271e+00
  6.28050722e+00  6.29096112e+00  6.29096458e+00  6.29096731e+00
  6.29891225e+00  6.29891288e+00  6.29891354e+00  7.28588174e+00
  9.60776150e+00  9.60776257e+00  9.60776430e+00  9.62583792e+00
  9.62583930e+00  1.11589392e+01  1.11589419e+01  1.11589439e+01
  1.61400364e+01  1.61400374e+01  1.61400384e+01  1.61451986e+01
  1.61451994e+01  1.61451998e+01  1.61586159e+01  1.61586162e+01
  1.61611108e+01  1.61611123e+01  1.61611156e+01  1.94548461e+01
  1.94552598e+01  1.94552659e+01  1.94552679e+01  1.94555099e+01
  1.94555113e+01  1.94555119e+01  2.01626640e+01  2.01675071e+01
  2.01675080e+01  2.01675093e+01  2.01709430e+01  2.01709438e+01
  2.01812415e+01  2.01812420e+01  2.01812443e+01]
E1 = -258.96328640524484  Ecoul = 114.69829245256261
cycle= 33 E= -144.264993952682  delta_E= -1.88e-08  |g|= 3.54e-05  |ddm|= 0.000538
    CPU time for cycle= 33     90.50 sec, wall time      0.80 sec
  HOMO = -0.00375975340720609  LUMO = 0.062056063196121
                  Roothaan           | alpha              | beta
  Highest 2-occ = -0.405868238291416 | -0.438470123129143 | -0.373265169496019
  Lowest 0-occ =   0.062056063196121 | 0.0467019207158458 |  0.077408143846983
  1-occ =         -0.0965891451786876 | -0.238140470226407 | 0.0449634694581912
  1-occ =         -0.00376108854253892 | -0.483639527670338 |  0.476126373220609
  1-occ =         -0.00375975340720609 | -0.483641160736848 |  0.476127100590513
  Roothaan mo_energy =
[-4.43965375e+00 -2.84113046e+00 -2.84112870e+00 -2.84112615e+00
 -4.05872980e-01 -4.05870347e-01 -4.05868238e-01 -9.65891452e-02
 -3.76108854e-03 -3.75975341e-03  6.20560632e-02  6.20568428e-02
  6.20577424e-02  1.73958064e-01  2.55067770e-01  2.55068548e-01
  2.55069673e-01  2.67958339e-01  2.67959600e-01  2.67961096e-01
  2.72280862e-01  2.72281613e-01  8.80799265e-01  9.45714324e-01
  9.45716903e-01  9.45720315e-01  9.60723833e-01  9.60726244e-01
  9.60729410e-01  9.80425233e-01  9.80426386e-01  1.99968901e+00
  2.00528738e+00  2.00529301e+00  2.00529830e+00  2.00957652e+00
  2.00957743e+00  2.00957867e+00  2.71308545e+00  3.06607614e+00
  3.06607840e+00  3.06608176e+00  3.09310668e+00  3.09310765e+00
  3.22137345e+00  3.22137758e+00  3.22138347e+00  5.98584720e+00
  5.98834988e+00  5.98835154e+00  5.98835313e+00  5.99009859e+00
  5.99009870e+00  5.99535456e+00  5.99535725e+00  5.99536081e+00
  6.28050671e+00  6.29096122e+00  6.29096414e+00  6.29096625e+00
  6.29891208e+00  6.29891235e+00  6.29891291e+00  7.28588178e+00
  9.60776267e+00  9.60776398e+00  9.60776512e+00  9.62583935e+00
  9.62583979e+00  1.11589401e+01  1.11589425e+01  1.11589446e+01
  1.61400357e+01  1.61400365e+01  1.61400375e+01  1.61451979e+01
  1.61451985e+01  1.61451990e+01  1.61586153e+01  1.61586154e+01
  1.61611103e+01  1.61611119e+01  1.61611145e+01  1.94548475e+01
  1.94552624e+01  1.94552671e+01  1.94552680e+01  1.94555116e+01
  1.94555125e+01  1.94555127e+01  2.01626644e+01  2.01675080e+01
  2.01675088e+01  2.01675090e+01  2.01709438e+01  2.01709440e+01
  2.01812421e+01  2.01812428e+01  2.01812443e+01]
E1 = -258.963338606401  Ecoul = 114.69834465504785
cycle= 34 E= -144.264993951353  delta_E= 1.33e-09  |g|= 5.01e-05  |ddm|= 0.000371
    CPU time for cycle= 34     62.54 sec, wall time      0.57 sec
  HOMO = -0.00375963968385356  LUMO = 0.0620562710049266
                  Roothaan           | alpha              | beta
  Highest 2-occ = -0.405868742334083 | -0.438466964946657 | -0.373261735083343
  Lowest 0-occ =  0.0620562710049266 | 0.0467030135433202 | 0.0774085930235859
  1-occ =         -0.0965889823193476 | -0.238139636942159 | 0.0449644565012386
  1-occ =         -0.00376008649872119 | -0.483639556791763 |  0.476130640530692
  1-occ =         -0.00375963968385356 | -0.483639889856275 |  0.476130557935589
  Roothaan mo_energy =
[-4.43965386e+00 -2.84113015e+00 -2.84112875e+00 -2.84112661e+00
 -4.05872281e-01 -4.05870743e-01 -4.05868742e-01 -9.65889823e-02
 -3.76008650e-03 -3.75963968e-03  6.20562710e-02  6.20568756e-02
  6.20576815e-02  1.73957922e-01  2.55068026e-01  2.55068592e-01
  2.55069542e-01  2.67958647e-01  2.67959713e-01  2.67960959e-01
  2.72280953e-01  2.72281585e-01  8.80799264e-01  9.45714986e-01
  9.45716951e-01  9.45719884e-01  9.60724492e-01  9.60726419e-01
  9.60729051e-01  9.80425376e-01  9.80426101e-01  1.99968914e+00
  2.00528838e+00  2.00529317e+00  2.00529764e+00  2.00957688e+00
  2.00957760e+00  2.00957875e+00  2.71308549e+00  3.06607689e+00
  3.06607850e+00  3.06608128e+00  3.09310681e+00  3.09310733e+00
  3.22137457e+00  3.22137753e+00  3.22138259e+00  5.98584732e+00
  5.98835020e+00  5.98835179e+00  5.98835291e+00  5.99009873e+00
  5.99009879e+00  5.99535528e+00  5.99535734e+00  5.99536038e+00
  6.28050676e+00  6.29096175e+00  6.29096421e+00  6.29096576e+00
  6.29891215e+00  6.29891234e+00  6.29891290e+00  7.28588175e+00
  9.60776288e+00  9.60776368e+00  9.60776508e+00  9.62583932e+00
  9.62583954e+00  1.11589406e+01  1.11589424e+01  1.11589440e+01
  1.61400360e+01  1.61400364e+01  1.61400373e+01  1.61451980e+01
  1.61451985e+01  1.61451989e+01  1.61586153e+01  1.61586154e+01
  1.61611108e+01  1.61611119e+01  1.61611140e+01  1.94548474e+01
  1.94552625e+01  1.94552668e+01  1.94552679e+01  1.94555115e+01
  1.94555123e+01  1.94555126e+01  2.01626644e+01  2.01675079e+01
  2.01675087e+01  2.01675088e+01  2.01709438e+01  2.01709438e+01
  2.01812422e+01  2.01812426e+01  2.01812443e+01]
E1 = -258.96333866487555  Ecoul = 114.69834470890356
cycle= 35 E= -144.264993955972  delta_E= -4.62e-09  |g|= 3.18e-05  |ddm|= 0.000409
    CPU time for cycle= 35    122.88 sec, wall time      1.07 sec
  HOMO = -0.00375663778294134  LUMO = 0.0620567004124902
                  Roothaan           | alpha              | beta
  Highest 2-occ = -0.405864352998755 | -0.438467008375092 | -0.373262808896101
  Lowest 0-occ =  0.0620567004124902 | 0.0467034430411267 | 0.0774086257115842
  1-occ =         -0.0965880795073559 | -0.238139674083007 |  0.044964456175921
  1-occ =         -0.00375732740277971 | -0.483639619819971 |  0.476129091363806
  1-occ =         -0.00375663778294134 | -0.483640369239236 |  0.476128929289363
  Roothaan mo_energy =
[-4.43965072e+00 -2.84112668e+00 -2.84112556e+00 -2.84112409e+00
 -4.05870143e-01 -4.05867464e-01 -4.05864353e-01 -9.65880795e-02
 -3.75732740e-03 -3.75663778e-03  6.20567004e-02  6.20571791e-02
  6.20577448e-02  1.73957965e-01  2.55068589e-01  2.55069194e-01
  2.55069927e-01  2.67959345e-01  2.67960049e-01  2.67960979e-01
  2.72280177e-01  2.72280455e-01  8.80800103e-01  9.45716476e-01
  9.45718157e-01  9.45720283e-01  9.60726121e-01  9.60727604e-01
  9.60729802e-01  9.80426636e-01  9.80426784e-01  1.99969073e+00
  2.00529181e+00  2.00529476e+00  2.00529747e+00  2.00957895e+00
  2.00957931e+00  2.00957988e+00  2.71308671e+00  3.06607908e+00
  3.06608089e+00  3.06608354e+00  3.09310883e+00  3.09310899e+00
  3.22137695e+00  3.22137989e+00  3.22138376e+00  5.98584960e+00
  5.98835297e+00  5.98835398e+00  5.98835481e+00  5.99010099e+00
  5.99010109e+00  5.99535806e+00  5.99535975e+00  5.99536197e+00
  6.28050962e+00  6.29096483e+00  6.29096687e+00  6.29096834e+00
  6.29891500e+00  6.29891513e+00  6.29891533e+00  7.28588413e+00
  9.60776554e+00  9.60776728e+00  9.60776833e+00  9.62584219e+00
  9.62584255e+00  1.11589428e+01  1.11589454e+01  1.11589478e+01
  1.61400387e+01  1.61400395e+01  1.61400403e+01  1.61452008e+01
  1.61452014e+01  1.61452020e+01  1.61586181e+01  1.61586183e+01
  1.61611132e+01  1.61611151e+01  1.61611171e+01  1.94548510e+01
  1.94552680e+01  1.94552691e+01  1.94552707e+01  1.94555153e+01
  1.94555156e+01  1.94555159e+01  2.01626677e+01  2.01675115e+01
  2.01675119e+01  2.01675122e+01  2.01709470e+01  2.01709473e+01
  2.01812452e+01  2.01812467e+01  2.01812470e+01]
E1 = -258.9632381885556  Ecoul = 114.69824422917014
cycle= 36 E= -144.264993959385  delta_E= -3.41e-09  |g|= 1.64e-05  |ddm|= 0.000213
    CPU time for cycle= 36     86.59 sec, wall time      0.77 sec
  HOMO = -0.00375820528311605  LUMO = 0.0620568644141343
                  Roothaan           | alpha              | beta
  Highest 2-occ = -0.405865463348462 | -0.438471378269439 | -0.373266830241995
  Lowest 0-occ =  0.0620568644141343 | 0.0467038252182923 | 0.0774088578313166
  1-occ =         -0.0965880597563762 | -0.238140764539636 | 0.0449636888050134
  1-occ =         -0.00375859109154416 | -0.483644915095481 |  0.476123122669022
  1-occ =         -0.00375820528311605 | -0.483644394401178 |  0.476122918950711
  Roothaan mo_energy =
[-4.43965271e+00 -2.84112831e+00 -2.84112729e+00 -2.84112619e+00
 -4.05871957e-01 -4.05868968e-01 -4.05865463e-01 -9.65880598e-02
 -3.75859109e-03 -3.75820528e-03  6.20568644e-02  6.20572568e-02
  6.20576853e-02  1.73957776e-01  2.55068606e-01  2.55069195e-01
  2.55069845e-01  2.67959538e-01  2.67960079e-01  2.67960823e-01
  2.72280308e-01  2.72280539e-01  8.80799840e-01  9.45716528e-01
  9.45718058e-01  9.45719806e-01  9.60726149e-01  9.60727465e-01
  9.60729336e-01  9.80426630e-01  9.80426826e-01  1.99969057e+00
  2.00529254e+00  2.00529459e+00  2.00529646e+00  2.00957900e+00
  2.00957917e+00  2.00957950e+00  2.71308627e+00  3.06607817e+00
  3.06608010e+00  3.06608259e+00  3.09310803e+00  3.09310819e+00
  3.22137645e+00  3.22137937e+00  3.22138264e+00  5.98584905e+00
  5.98835266e+00  5.98835338e+00  5.98835407e+00  5.99010049e+00
  5.99010051e+00  5.99535776e+00  5.99535931e+00  5.99536110e+00
  6.28050837e+00  6.29096378e+00  6.29096557e+00  6.29096701e+00
  6.29891376e+00  6.29891401e+00  6.29891402e+00  7.28588279e+00
  9.60776302e+00  9.60776501e+00  9.60776658e+00  9.62584003e+00
  9.62584037e+00  1.11589403e+01  1.11589434e+01  1.11589461e+01
  1.61400373e+01  1.61400382e+01  1.61400390e+01  1.61451994e+01
  1.61452001e+01  1.61452008e+01  1.61586169e+01  1.61586170e+01
  1.61611118e+01  1.61611138e+01  1.61611159e+01  1.94548484e+01
  1.94552655e+01  1.94552661e+01  1.94552685e+01  1.94555127e+01
  1.94555129e+01  1.94555134e+01  2.01626656e+01  2.01675094e+01
  2.01675097e+01  2.01675101e+01  2.01709449e+01  2.01709451e+01
  2.01812428e+01  2.01812444e+01  2.01812453e+01]
E1 = -258.96328180207684  Ecoul = 114.698287842081
cycle= 37 E= -144.264993959996  delta_E= -6.1e-10  |g|= 8.67e-06  |ddm|= 8.45e-05
    CPU time for cycle= 37    101.94 sec, wall time      0.92 sec
  HOMO = -0.00375823404022466  LUMO = 0.0620569048180965
                  Roothaan           | alpha              | beta
  Highest 2-occ = -0.405866238147686 | -0.438468711562975 | -0.373263764805412
  Lowest 0-occ =  0.0620569048180965 | 0.0467042429373398 | 0.0774091362841288
  1-occ =         -0.0965882289724665 | -0.238140500942758 | 0.0449640414681291
  1-occ =         -0.00375838326370406 | -0.483642583056083 |  0.476125983184453
  1-occ =         -0.00375823404022466 | -0.483642134069361 |  0.476126165102679
  Roothaan mo_energy =
[-4.43965249e+00 -2.84112791e+00 -2.84112714e+00 -2.84112620e+00
 -4.05871594e-01 -4.05868875e-01 -4.05866238e-01 -9.65882290e-02
 -3.75838326e-03 -3.75823404e-03  6.20569048e-02  6.20571902e-02
  6.20575515e-02  1.73957768e-01  2.55068610e-01  2.55069097e-01
  2.55069639e-01  2.67959599e-01  2.67960047e-01  2.67960620e-01
  2.72280710e-01  2.72280882e-01  8.80799745e-01  9.45716688e-01
  9.45717920e-01  9.45719376e-01  9.60726260e-01  9.60727393e-01
  9.60728838e-01  9.80426494e-01  9.80426596e-01  1.99969031e+00
  2.00529269e+00  2.00529431e+00  2.00529576e+00  2.00957877e+00
  2.00957891e+00  2.00957914e+00  2.71308621e+00  3.06607838e+00
  3.06608011e+00  3.06608206e+00  3.09310806e+00  3.09310823e+00
  3.22137688e+00  3.22137924e+00  3.22138200e+00  5.98584876e+00
  5.98835248e+00  5.98835314e+00  5.98835361e+00  5.99010018e+00
  5.99010023e+00  5.99535778e+00  5.99535902e+00  5.99536051e+00
  6.28050828e+00  6.29096402e+00  6.29096546e+00  6.29096668e+00
  6.29891373e+00  6.29891393e+00  6.29891399e+00  7.28588289e+00
  9.60776364e+00  9.60776542e+00  9.60776673e+00  9.62584060e+00
  9.62584076e+00  1.11589411e+01  1.11589437e+01  1.11589461e+01
  1.61400374e+01  1.61400381e+01  1.61400388e+01  1.61451994e+01
  1.61452000e+01  1.61452006e+01  1.61586168e+01  1.61586169e+01
  1.61611120e+01  1.61611138e+01  1.61611155e+01  1.94548489e+01
  1.94552661e+01  1.94552667e+01  1.94552688e+01  1.94555133e+01
  1.94555134e+01  1.94555138e+01  2.01626659e+01  2.01675097e+01
  2.01675099e+01  2.01675103e+01  2.01709452e+01  2.01709453e+01
  2.01812433e+01  2.01812447e+01  2.01812455e+01]
E1 = -258.9632910983174  Ecoul = 114.69829713814718
Extra cycle  E= -144.26499396017  delta_E= -1.74e-10  |g|= 7.43e-06  |ddm|= 5.19e-05
    CPU time for scf_cycle   3957.99 sec, wall time     40.66 sec
    CPU time for SCF   3958.02 sec, wall time     40.66 sec
converged SCF energy = -144.26499396017
