#INFO: **** input file is /home/nkousuke/lustre/toBeSync/turboRVB/05turbo-genius-development/turbogenius_paper/04data/sanity_checks/02pyscf_prep_LDA_via_trexio/00open_boundary/results/N2H4/pyscf-LDA-workflow/run.py ****

from pyscf_wrapper import Pyscf_wrapper

# input variables
pyscf_chkfile="pyscf.chk"
structure_file="N2H4.xyz"

# input variables
omp_num_threads=128
charge=0
spin=0
basis="ccecp-ccpvqz"
ecp="ccecp"
scf_method="DFT"
dft_xc="LDA_X,LDA_C_PZ"
solver_newton=False
MP2_flag=False
CCSD_flag=False
pyscf_output="out.pyscf"
twist_average=False
exp_to_discard=0.1
kpt=[0.0, 0.0, 0.0]
kpt_grid=[1, 1, 1]
smearing_method="fermi"
smearing_sigma=0.0

pyscf_calc=Pyscf_wrapper(
                        structure_file=structure_file,
                        chkfile=pyscf_chkfile,
                        )

pyscf_calc.run_pyscf(
                  omp_num_threads=omp_num_threads,
                  charge=charge,
                  spin=spin,
                  basis=basis,
                  ecp=ecp,
                  scf_method=scf_method,
                  dft_xc=dft_xc,
                  solver_newton=solver_newton,
                  MP2_flag=MP2_flag,
                  CCSD_flag=CCSD_flag,
                  pyscf_output=pyscf_output,
                  twist_average=twist_average,
                  exp_to_discard=exp_to_discard,
                  kpt=kpt,
                  kpt_grid=kpt_grid,
                  smearing_method=smearing_method,
                  smearing_sigma=smearing_sigma
                  )
                #INFO: ******************** input file end ********************


System: uname_result(system='Linux', node='spcc-109', release='5.4.0-66-generic', version='#74-Ubuntu SMP Wed Jan 27 22:54:38 UTC 2021', machine='x86_64', processor='x86_64')  Threads 128
Python 3.7.3 (default, Mar 27 2019, 22:11:17) 
[GCC 7.3.0]
numpy 1.20.1  scipy 1.7.3
Date: Thu Dec 22 05:30:29 2022
PySCF version 2.0.1
PySCF path  /home/nkousuke/application/anaconda3/lib/python3.7/site-packages/pyscf

[CONFIG] conf_file /home/nkousuke/.pyscf_conf.py
[INPUT] verbose = 5
[INPUT] max_memory = 507887.62890625 
[INPUT] num. atoms = 6
[INPUT] num. electrons = 14
[INPUT] charge = 0
[INPUT] spin (= nelec alpha-beta = 2S) = 0
[INPUT] symmetry False subgroup None
[INPUT] Mole.unit = A
[INPUT]  1 N     -0.059400440000  -0.714452590000  -0.042538230000 AA   -0.112250563279  -1.350119724086  -0.080385604524 Bohr
[INPUT]  2 N      0.059400440000   0.714452590000  -0.042538230000 AA    0.112250563279   1.350119724086  -0.080385604524 Bohr
[INPUT]  3 H     -0.311979690000  -1.069214670000   0.870938490000 AA   -0.589556170527  -2.020522894667   1.645835217442 Bohr
[INPUT]  4 H      0.311979690000   1.069214670000   0.870938490000 AA    0.589556170527   2.020522894667   1.645835217442 Bohr
[INPUT]  5 H      0.845943960000  -1.091464910000  -0.279811860000 AA    1.598602401130  -2.062569754473  -0.528767781805 Bohr
[INPUT]  6 H     -0.845943960000   1.091464910000  -0.279811860000 AA   -1.598602401130   2.062569754473  -0.528767781805 Bohr
[INPUT] ---------------- BASIS SET ---------------- 
[INPUT] l, kappa, [nprim/nctr], expnt,             c_1 c_2 ...
[INPUT] H
[INPUT] 0    0    [8    /1   ]  23.843185         0.0041149
                                10.212443         0.0104644
                                4.374164          0.0280111
                                1.873529          0.0758862
                                0.802465          0.1821062
                                0.343709          0.3485214
                                0.147217          0.3782313
                                0.063055          0.1164241
[INPUT] 0    0    [1    /1   ]  0.081856             1
[INPUT] 0    0    [1    /1   ]  0.233254             1
[INPUT] 0    0    [1    /1   ]  0.664673             1
[INPUT] 1    0    [1    /1   ]  0.284469             1
[INPUT] 1    0    [1    /1   ]  0.847159             1
[INPUT] 1    0    [1    /1   ]  2.522868             1
[INPUT] 2    0    [1    /1   ]  0.665279             1
[INPUT] 2    0    [1    /1   ]  2.048739             1
[INPUT] 3    0    [1    /1   ]  1.42146              1
[INPUT] N
[INPUT] 0    0    [9    /1   ]  42.693822         -0.0009357
                                19.963207         0.0063295
                                9.3345971         0.0105038
                                4.9278187         -0.1653735
                                2.04092           -0.0005352
                                0.96708           0.2452063
                                0.476131          0.4582128
                                0.211443          0.3641224
                                0.098869          0.0620406
[INPUT] 0    0    [1    /1   ]  1.625001             1
[INPUT] 0    0    [1    /1   ]  0.310826             1
[INPUT] 0    0    [1    /1   ]  0.135764             1
[INPUT] 1    0    [9    /1   ]  18.925871         0.0073505
                                9.225603          0.0292844
                                4.581431          0.0652168
                                2.300164          0.1405153
                                1.154825          0.2328188
                                0.582039          0.2989556
                                0.290535          0.2802507
                                0.145867          0.1527995
                                0.073234          0.0355475
[INPUT] 1    0    [1    /1   ]  1.02075              1
[INPUT] 1    0    [1    /1   ]  0.413103             1
[INPUT] 1    0    [1    /1   ]  0.140736             1
[INPUT] 2    0    [1    /1   ]  3.028459             1
[INPUT] 2    0    [1    /1   ]  1.009895             1
[INPUT] 2    0    [1    /1   ]  0.346233             1
[INPUT] 3    0    [1    /1   ]  2.024747             1
[INPUT] 3    0    [1    /1   ]  0.691129             1
[INPUT] 4    0    [1    /1   ]  1.357512             1

nuclear repulsion = 26.463770489533
number of shells = 68
number of NR pGTOs = 320
number of NR cGTOs = 228
basis = ccecp-ccpvqz
ecp = ccecp
CPU time:         8.27


******** <class 'pyscf.df.df_jk.density_fit.<locals>.DFHF'> ********
method = DFHF-RKS-RHF
initial guess = minao
damping factor = 0
level_shift factor = 0
DIIS = <class 'pyscf.scf.diis.CDIIS'>
diis_start_cycle = 1
diis_space = 8
SCF conv_tol = 1e-09
SCF conv_tol_grad = None
SCF max_cycles = 200
direct_scf = True
direct_scf_tol = 1e-13
chkfile to save SCF result = pyscf.chk
max_memory 507887 MB (current use 106 MB)
XC library pyscf.dft.libxc version 5.1.7
    S. Lehtola, C. Steigemann, M. J. Oliveira, and M. A. Marques, SoftwareX 7, 1 (2018)
XC functionals = LDA_X,LDA_C_PZ
    P. A. M. Dirac, Math. Proc. Cambridge Philos. Soc. 26, 376 (1930)
    F. Bloch, Z. Phys. 57, 545 (1929)
    J. P. Perdew and A. Zunger, Phys. Rev. B 23, 5048 (1981)
radial grids: 
    Treutler-Ahlrichs [JCP 102, 346 (1995); DOI:10.1063/1.469408] (M4) radial grids
    
becke partition: Becke, JCP 88, 2547 (1988); DOI:10.1063/1.454033
pruning grids: <function nwchem_prune at 0x154d5da617b8>
grids dens level: 3
symmetrized grids: False
atomic radii adjust function: <function treutler_atomic_radii_adjust at 0x154d5da616a8>
small_rho_cutoff = 1e-07
Set gradient conv threshold to 3.16228e-05
atom N rad-grids = 75, ang-grids = [ 50  50  50  50  50  50  50  50  50  50  50  50  50  50  50  50  50  50
  50  50  50  50  50  86  86  86  86  86  86  86  86  86 266 266 266 266
 266 266 266 302 302 302 302 302 302 302 302 302 302 302 302 302 302 302
 302 302 302 302 266 266 266 266 266 266 266 266 266 266 266 266 266 266
 266 266 266]
atom H rad-grids = 50, ang-grids = [ 50  50  50  50  50  50  50  50  50  50  50  50  50  50  86  86  86  86
 266 266 266 266 302 302 302 302 302 302 302 302 302 302 302 302 302 266
 266 266 266 266 266 266 266 266 266 266 266 266 266 266]
tot grids = 68188
Drop grids 7784
    CPU time for setting up grids     19.59 sec, wall time      0.17 sec
nelec by numeric integration = 13.999848804776002
    CPU time for vxc     33.24 sec, wall time      0.26 sec
Even tempered Gaussians are generated as DF auxbasis for  H N
  ETB auxbasis for H  [[0, [32.28416, 1]], [0, [16.14208, 1]], [0, [8.07104, 1]], [0, [4.03552, 1]], [0, [2.01776, 1]], [0, [1.00888, 1]], [0, [0.50444, 1]], [0, [0.25222, 1]], [0, [0.12611, 1]], [1, [8.571507550502421, 1]], [1, [4.2857537752512105, 1]], [1, [2.1428768876256052, 1]], [1, [1.0714384438128026, 1]], [1, [0.5357192219064013, 1]], [1, [0.26785961095320066, 1]], [2, [4.551504, 1]], [2, [2.275752, 1]], [2, [1.137876, 1]], [2, [0.568938, 1]]]
  ETB auxbasis for N  [[0, [25.310464, 1]], [0, [12.655232, 1]], [0, [6.327616, 1]], [0, [3.163808, 1]], [0, [1.581904, 1]], [0, [0.790952, 1]], [0, [0.395476, 1]], [0, [0.197738, 1]], [1, [21.783437498876435, 1]], [1, [10.891718749438217, 1]], [1, [5.445859374719109, 1]], [1, [2.7229296873595543, 1]], [1, [1.3614648436797772, 1]], [1, [0.6807324218398886, 1]], [1, [0.3403662109199443, 1]], [1, [0.17018310545997214, 1]], [2, [37.495808, 1]], [2, [18.747904, 1]], [2, [9.373952, 1]], [2, [4.686976, 1]], [2, [2.343488, 1]], [2, [1.171744, 1]], [2, [0.585872, 1]], [2, [0.292936, 1]], [2, [0.146468, 1]], [3, [10.191088692093302, 1]], [3, [5.095544346046651, 1]], [3, [2.5477721730233256, 1]], [3, [1.2738860865116628, 1]], [3, [0.6369430432558314, 1]], [3, [0.3184715216279157, 1]], [4, [5.539728, 1]], [4, [2.769864, 1]], [4, [1.384932, 1]], [4, [0.692466, 1]]]
num shells = 146, num cGTOs = 498
    CPU time for df-vj     26.60 sec, wall time      0.21 sec
E1 = -84.79430322713544  Ecoul = 42.68727454928447  Exc = -6.165649301112674
init E= -21.8089074894307
cond(S) = 68981.59369351706
    CPU time for initialize scf    282.45 sec, wall time      2.37 sec
  HOMO = -0.315312511517872  LUMO = -0.0271276726418324
  mo_energy =
[-9.56481136e-01 -7.69307800e-01 -5.40334331e-01 -5.22312192e-01
 -4.96499884e-01 -3.18897142e-01 -3.15312512e-01 -2.71276726e-02
 -4.35552730e-03  3.77414240e-02  4.50905925e-02  7.87976001e-02
  1.84314191e-01  2.04320003e-01  2.19435914e-01  2.49358492e-01
  2.51090075e-01  2.65163599e-01  2.96151014e-01  3.29898697e-01
  3.30252142e-01  3.57313853e-01  3.61135786e-01  3.79581029e-01
  4.06568006e-01  4.43785598e-01  6.14523183e-01  6.22012143e-01
  6.74139402e-01  7.02348701e-01  7.70412145e-01  7.76218940e-01
  8.04558728e-01  8.29339462e-01  8.64021895e-01  8.78561393e-01
  9.13342083e-01  9.42167226e-01  9.43774651e-01  9.75389217e-01
  9.93519779e-01  1.03763780e+00  1.06091748e+00  1.10647244e+00
  1.18605730e+00  1.20884082e+00  1.21456228e+00  1.28029321e+00
  1.36149702e+00  1.53658744e+00  1.59050962e+00  1.72048412e+00
  1.73553770e+00  1.89177843e+00  1.92234049e+00  1.93519361e+00
  1.96955387e+00  1.97241374e+00  2.02985630e+00  2.05785808e+00
  2.06199127e+00  2.10555562e+00  2.10797047e+00  2.13364667e+00
  2.16620299e+00  2.19424905e+00  2.20916710e+00  2.22229871e+00
  2.24247451e+00  2.24890051e+00  2.25280153e+00  2.32394113e+00
  2.36523595e+00  2.39087965e+00  2.40233362e+00  2.44632918e+00
  2.48629131e+00  2.49475063e+00  2.58921187e+00  2.60675908e+00
  2.61989964e+00  2.62626382e+00  2.66985930e+00  2.73897732e+00
  2.77136872e+00  2.78424048e+00  2.87266138e+00  2.92523793e+00
  2.94895173e+00  2.95982046e+00  3.13312836e+00  3.18540053e+00
  3.25741497e+00  3.28049731e+00  3.39498985e+00  3.42233745e+00
  3.45205137e+00  3.46523889e+00  3.55148814e+00  3.63924709e+00
  3.64302273e+00  3.78178231e+00  3.80602420e+00  3.88470937e+00
  3.91348261e+00  3.94601410e+00  3.96329583e+00  3.97034052e+00
  4.21362144e+00  4.21965339e+00  4.31013917e+00  4.44762859e+00
  4.49352048e+00  5.02343551e+00  5.58709823e+00  5.62483679e+00
  5.64375160e+00  5.70887516e+00  5.78484231e+00  5.82973720e+00
  5.90027826e+00  5.90478938e+00  5.94081924e+00  5.95777459e+00
  6.03075584e+00  6.07093482e+00  6.13845951e+00  6.16361785e+00
  6.29010963e+00  6.30303944e+00  6.35124948e+00  6.38910450e+00
  6.47879092e+00  6.53952661e+00  6.54607419e+00  6.56385594e+00
  6.63113022e+00  6.66517767e+00  6.81815736e+00  6.83540383e+00
  6.86695401e+00  6.95716722e+00  6.97009921e+00  7.02842117e+00
  7.05854309e+00  7.10420972e+00  7.12302016e+00  7.13673388e+00
  7.15107117e+00  7.25989531e+00  7.28313001e+00  7.39679660e+00
  7.42290581e+00  7.44310530e+00  7.47701549e+00  7.49010212e+00
  7.50321458e+00  7.56554951e+00  7.57730008e+00  7.66394419e+00
  7.68750599e+00  7.73850193e+00  7.75025050e+00  7.76768613e+00
  7.80915147e+00  7.83122608e+00  7.88385637e+00  7.90118860e+00
  7.91116720e+00  7.98174562e+00  7.99785261e+00  8.02671287e+00
  8.09998059e+00  8.10827401e+00  8.14955165e+00  8.20380742e+00
  8.26552571e+00  8.34044878e+00  8.40352504e+00  8.41974966e+00
  8.48060449e+00  8.49769967e+00  8.59513845e+00  8.60467067e+00
  8.71166351e+00  8.73793892e+00  8.74099134e+00  8.82596110e+00
  8.84307983e+00  8.84436511e+00  8.96973460e+00  9.02449674e+00
  9.07788011e+00  9.14301868e+00  9.15920251e+00  9.21530771e+00
  9.35211262e+00  9.40414811e+00  9.53263244e+00  9.58453102e+00
  9.67931817e+00  9.79639998e+00  9.82755252e+00  9.85044869e+00
  9.91489230e+00  9.97273232e+00  9.97842798e+00  1.05373210e+01
  1.05861807e+01  1.07418215e+01  1.10600422e+01  1.13735346e+01
  1.14648615e+01  1.14827784e+01  1.15332434e+01  1.15642564e+01
  1.15936888e+01  1.17358702e+01  1.18053817e+01  1.20367551e+01
  1.20717006e+01  1.21157482e+01  1.21873361e+01  1.24559453e+01
  1.41393096e+01  1.41547452e+01  1.89732182e+01  1.93852635e+01]
nelec by numeric integration = 14.000013943627897
    CPU time for vxc     38.62 sec, wall time      0.31 sec
    CPU time for df-vj      6.09 sec, wall time      0.05 sec
E1 = -87.59782996228486  Ecoul = 45.765770945263746  Exc = -6.635225403384672
cycle= 1 E= -22.0035139308728  delta_E= -0.195  |g|= 0.612  |ddm|= 4.87
    CPU time for cycle= 1     54.15 sec, wall time      0.44 sec
  HOMO = -0.0890054597720685  LUMO = 0.0200172370003877
  mo_energy =
[-0.73857691 -0.57263179 -0.35512109 -0.34627593 -0.2953077  -0.09462727
 -0.08900546  0.02001724  0.05192252  0.09625358  0.0992763   0.22851698
  0.2538842   0.26847644  0.28607211  0.33358408  0.34372622  0.35101537
  0.37487452  0.41169719  0.42291726  0.42975094  0.43974091  0.46832145
  0.47102649  0.53411798  0.66337692  0.67921323  0.72572832  0.74018757
  0.82016039  0.82326212  0.88971514  0.90555914  0.94414861  0.96391435
  0.98947222  1.02455285  1.05846021  1.07650494  1.08475387  1.13022779
  1.17005533  1.20443812  1.29682052  1.32237357  1.32365189  1.38223089
  1.44626712  1.63434733  1.70569316  1.8793988   1.89368453  1.97778579
  2.02665611  2.03707529  2.0395779   2.05184659  2.1140349   2.1476017
  2.17599911  2.19240152  2.20613728  2.21581308  2.23247111  2.26481245
  2.30016142  2.31292561  2.34314057  2.35232135  2.35676076  2.44332341
  2.45999482  2.51122167  2.52127175  2.54395415  2.5772995   2.64476174
  2.70359569  2.71878885  2.7416865   2.74522729  2.79648417  2.8527003
  2.88759454  2.90767181  2.99480708  3.04802557  3.07861347  3.08031207
  3.25242732  3.31889975  3.41602298  3.42752684  3.52571818  3.53620979
  3.60746222  3.61956488  3.68043577  3.77955055  3.78497919  3.94508027
  3.96077054  4.03667541  4.08122745  4.08866847  4.11966045  4.12049875
  4.36536375  4.38981961  4.46885005  4.61278419  4.66587258  5.23311349
  5.72367863  5.74902812  5.76598714  5.85196619  5.90317415  5.93890028
  5.98916833  6.00778088  6.03218199  6.04639078  6.14928742  6.25688939
  6.30661077  6.35606172  6.45688449  6.46327714  6.48212769  6.55590851
  6.61549458  6.68371045  6.69862014  6.72115946  6.78732543  6.83333678
  6.96905664  7.00290487  7.0243089   7.10786629  7.11961246  7.1583222
  7.19711191  7.20415205  7.22953201  7.26627264  7.30403143  7.39876366
  7.42741409  7.53534997  7.55401814  7.57501933  7.57693084  7.58634987
  7.63327576  7.66237483  7.69198452  7.74502929  7.76757513  7.81891632
  7.82238271  7.86261184  7.92874858  7.96762902  7.99436727  8.02110767
  8.04779567  8.06021567  8.13782197  8.14133142  8.2133234   8.25139016
  8.26598981  8.33636367  8.42632785  8.52000875  8.55356431  8.55376608
  8.62340881  8.65950187  8.77171737  8.80169839  8.85478039  8.89858251
  8.91175885  9.0126157   9.02578384  9.0731858   9.217278    9.25029659
  9.25688556  9.30881704  9.35435286  9.46565032  9.58674528  9.59628791
  9.72786272  9.79465017  9.92173    10.0193911  10.04099721 10.09794375
 10.14906965 10.18986664 10.19001474 10.78193926 10.80287287 10.95510905
 11.30269906 11.57053432 11.67018698 11.68234949 11.74913832 11.76412488
 11.81525184 11.9534802  12.02027032 12.27228205 12.31327927 12.36283836
 12.42117357 12.73465364 14.35045899 14.36439495 19.32148884 19.7360098 ]
nelec by numeric integration = 14.000040158779564
    CPU time for vxc     41.08 sec, wall time      0.33 sec
    CPU time for df-vj      4.09 sec, wall time      0.03 sec
E1 = -83.1342124701606  Ecoul = 40.75789654358226  Exc = -5.908987855776409
cycle= 2 E= -21.8215332928218  delta_E= 0.182  |g|= 1.08  |ddm|= 3.84
    CPU time for cycle= 2    115.65 sec, wall time      0.91 sec
  HOMO = -0.211290046282664  LUMO = -0.00646885209101766
  mo_energy =
[-8.77655815e-01 -6.79845288e-01 -4.62590065e-01 -4.45146463e-01
 -4.15726809e-01 -2.15504630e-01 -2.11290046e-01 -6.46885209e-03
  2.27700320e-02  6.28461580e-02  7.10035111e-02  1.45131067e-01
  2.17711558e-01  2.31887489e-01  2.41566460e-01  2.88127401e-01
  2.88853219e-01  2.94506800e-01  3.29525652e-01  3.66184745e-01
  3.68998867e-01  3.87294242e-01  3.90728058e-01  4.15473714e-01
  4.33251180e-01  4.79555582e-01  6.35268613e-01  6.46274826e-01
  6.97623373e-01  7.19766147e-01  7.95284503e-01  7.95797574e-01
  8.40426844e-01  8.60363597e-01  8.96870413e-01  9.16533050e-01
  9.44839889e-01  9.76134342e-01  9.92719078e-01  1.01627239e+00
  1.03506269e+00  1.07593874e+00  1.10997474e+00  1.15071153e+00
  1.23082737e+00  1.26367136e+00  1.26408091e+00  1.32718249e+00
  1.40075416e+00  1.58036461e+00  1.63127271e+00  1.80205108e+00
  1.80247381e+00  1.92970653e+00  1.97377261e+00  1.97830468e+00
  1.99576894e+00  2.00684157e+00  2.06512551e+00  2.10080159e+00
  2.11062251e+00  2.14344099e+00  2.14427642e+00  2.17100804e+00
  2.19323625e+00  2.22335395e+00  2.25685995e+00  2.25855315e+00
  2.27807384e+00  2.28987681e+00  2.29029902e+00  2.37217718e+00
  2.40334399e+00  2.44641955e+00  2.44651100e+00  2.48737839e+00
  2.52869848e+00  2.55654028e+00  2.63773186e+00  2.65947103e+00
  2.66560684e+00  2.67515946e+00  2.71835039e+00  2.78355036e+00
  2.82072177e+00  2.83290669e+00  2.92503240e+00  2.98049626e+00
  3.00181225e+00  3.00446691e+00  3.18263945e+00  3.24153478e+00
  3.31893524e+00  3.34220331e+00  3.44786077e+00  3.47232365e+00
  3.51865486e+00  3.52453173e+00  3.60203088e+00  3.70015756e+00
  3.70519529e+00  3.84920990e+00  3.87226371e+00  3.94767906e+00
  3.98693583e+00  4.00391509e+00  4.02688226e+00  4.03016823e+00
  4.27492397e+00  4.28985031e+00  4.37542215e+00  4.51555184e+00
  4.56489794e+00  5.10558197e+00  5.64261551e+00  5.67858014e+00
  5.69460325e+00  5.77196378e+00  5.83827132e+00  5.87719709e+00
  5.94070379e+00  5.95321743e+00  5.97414665e+00  5.99741320e+00
  6.08105509e+00  6.15231288e+00  6.20172434e+00  6.24336580e+00
  6.35840559e+00  6.37023374e+00  6.40864313e+00  6.45966703e+00
  6.53621403e+00  6.60278787e+00  6.61893583e+00  6.62153388e+00
  6.69798329e+00  6.73594603e+00  6.88265568e+00  6.90668550e+00
  6.93028156e+00  7.02465748e+00  7.03322756e+00  7.08412583e+00
  7.11997422e+00  7.14530392e+00  7.17349865e+00  7.18174758e+00
  7.21284303e+00  7.32982108e+00  7.33222220e+00  7.45516218e+00
  7.48844333e+00  7.48967500e+00  7.51539368e+00  7.53703256e+00
  7.54468517e+00  7.60528918e+00  7.62407472e+00  7.69472590e+00
  7.72225589e+00  7.77245553e+00  7.78001314e+00  7.80829057e+00
  7.85570950e+00  7.88538011e+00  7.92980554e+00  7.95587353e+00
  7.95777180e+00  8.02012914e+00  8.05272878e+00  8.07363603e+00
  8.14504637e+00  8.16652219e+00  8.19441561e+00  8.25920346e+00
  8.32965711e+00  8.41481144e+00  8.46397796e+00  8.47566441e+00
  8.53947827e+00  8.56403495e+00  8.67094888e+00  8.68375750e+00
  8.77587388e+00  8.80168821e+00  8.81357432e+00  8.90661686e+00
  8.90819360e+00  8.94274721e+00  9.06937048e+00  9.11107657e+00
  9.15106950e+00  9.20699207e+00  9.23719813e+00  9.31974269e+00
  9.44128603e+00  9.48467328e+00  9.60995763e+00  9.67163107e+00
  9.77921156e+00  9.88658751e+00  9.91357356e+00  9.94748949e+00
  1.00132682e+01  1.00534571e+01  1.00625144e+01  1.06327789e+01
  1.06749419e+01  1.08220493e+01  1.11512862e+01  1.14481178e+01
  1.15462483e+01  1.15646760e+01  1.16180415e+01  1.16460141e+01
  1.16803710e+01  1.18208182e+01  1.18905262e+01  1.21297985e+01
  1.21663355e+01  1.22134746e+01  1.22804078e+01  1.25587647e+01
  1.42245232e+01  1.42394749e+01  1.91039371e+01  1.95174057e+01]
nelec by numeric integration = 14.000021156905554
    CPU time for vxc     45.20 sec, wall time      0.38 sec
    CPU time for df-vj      9.04 sec, wall time      0.07 sec
E1 = -86.1800763521289  Ecoul = 43.98969853094075  Exc = -6.363295828952316
cycle= 3 E= -22.0899031606075  delta_E= -0.268  |g|= 0.0548  |ddm|= 2.75
    CPU time for cycle= 3    128.10 sec, wall time      1.04 sec
  HOMO = -0.211022780200655  LUMO = -0.0059522576148277
  mo_energy =
[-8.69001410e-01 -6.79059486e-01 -4.58459730e-01 -4.41743882e-01
 -4.12119983e-01 -2.15169283e-01 -2.11022780e-01 -5.95225761e-03
  2.38523971e-02  6.37779216e-02  7.17062561e-02  1.47434513e-01
  2.18914185e-01  2.33370253e-01  2.43864461e-01  2.88997674e-01
  2.90340286e-01  2.96365456e-01  3.29057381e-01  3.66989567e-01
  3.67695475e-01  3.88833328e-01  3.91619579e-01  4.15804640e-01
  4.34710419e-01  4.80502340e-01  6.36542563e-01  6.47651703e-01
  6.98415150e-01  7.19942321e-01  7.95523308e-01  7.96193867e-01
  8.42832856e-01  8.63342249e-01  8.98665203e-01  9.18207626e-01
  9.45910407e-01  9.78104162e-01  9.94730836e-01  1.01865553e+00
  1.03528431e+00  1.07810523e+00  1.11085163e+00  1.15281785e+00
  1.23324900e+00  1.26348786e+00  1.26372807e+00  1.32752740e+00
  1.40162451e+00  1.58143626e+00  1.63734965e+00  1.80203789e+00
  1.80292626e+00  1.93191073e+00  1.97580010e+00  1.97964333e+00
  1.99848062e+00  2.00883857e+00  2.06688727e+00  2.10250081e+00
  2.11355754e+00  2.14614454e+00  2.14707006e+00  2.17283288e+00
  2.19532411e+00  2.22541982e+00  2.25786744e+00  2.26117184e+00
  2.28055704e+00  2.29343021e+00  2.29386866e+00  2.37407498e+00
  2.40497049e+00  2.44832676e+00  2.44846083e+00  2.48878594e+00
  2.52983693e+00  2.55915487e+00  2.64044847e+00  2.66312930e+00
  2.66715137e+00  2.67685055e+00  2.72142305e+00  2.78691234e+00
  2.82305493e+00  2.83613939e+00  2.92686028e+00  2.98263576e+00
  3.00400958e+00  3.00619182e+00  3.18626738e+00  3.24315828e+00
  3.32351804e+00  3.34405789e+00  3.45075631e+00  3.47356791e+00
  3.52002775e+00  3.52825570e+00  3.60581404e+00  3.70221909e+00
  3.70573386e+00  3.85221279e+00  3.87422766e+00  3.95065803e+00
  3.98774360e+00  4.00719351e+00  4.03047624e+00  4.03282037e+00
  4.27853074e+00  4.29243945e+00  4.37823337e+00  4.51863321e+00
  4.56750982e+00  5.10850782e+00  5.64633022e+00  5.68187581e+00
  5.69810371e+00  5.77449504e+00  5.84149023e+00  5.88011600e+00
  5.94286424e+00  5.95664577e+00  5.97719310e+00  5.99921724e+00
  6.08368078e+00  6.15445252e+00  6.20421928e+00  6.24571279e+00
  6.36038980e+00  6.37371711e+00  6.41054778e+00  6.46211626e+00
  6.53908595e+00  6.60533020e+00  6.62137817e+00  6.62408483e+00
  6.70017378e+00  6.73917645e+00  6.88532686e+00  6.90975946e+00
  6.93318326e+00  7.02713288e+00  7.03675162e+00  7.08591035e+00
  7.12387151e+00  7.14723785e+00  7.17632661e+00  7.18437580e+00
  7.21682586e+00  7.33186799e+00  7.33436262e+00  7.45736296e+00
  7.49048724e+00  7.49218176e+00  7.51900823e+00  7.53937139e+00
  7.54782709e+00  7.60888665e+00  7.62712203e+00  7.69678568e+00
  7.72452456e+00  7.77485765e+00  7.78230452e+00  7.81069149e+00
  7.85909555e+00  7.88894402e+00  7.93281090e+00  7.95914639e+00
  7.96180632e+00  8.02235528e+00  8.05490054e+00  8.07638487e+00
  8.14834098e+00  8.16959419e+00  8.19704785e+00  8.26213419e+00
  8.33340206e+00  8.41799920e+00  8.46843215e+00  8.47987876e+00
  8.54282709e+00  8.56739896e+00  8.67535388e+00  8.68587681e+00
  8.77878250e+00  8.80404353e+00  8.81593920e+00  8.90904172e+00
  8.91231488e+00  8.94296163e+00  9.07093618e+00  9.11433486e+00
  9.15414692e+00  9.21017784e+00  9.24045937e+00  9.31980369e+00
  9.44461503e+00  9.48620036e+00  9.61381195e+00  9.67349240e+00
  9.78017333e+00  9.88878027e+00  9.91558431e+00  9.94974251e+00
  1.00156118e+01  1.00564777e+01  1.00649341e+01  1.06358982e+01
  1.06780326e+01  1.08255925e+01  1.11545802e+01  1.14523016e+01
  1.15491675e+01  1.15669340e+01  1.16203999e+01  1.16483170e+01
  1.16831148e+01  1.18237500e+01  1.18930303e+01  1.21319444e+01
  1.21685232e+01  1.22153803e+01  1.22826676e+01  1.25620843e+01
  1.42263885e+01  1.42412996e+01  1.91039467e+01  1.95169027e+01]
nelec by numeric integration = 14.00002137948799
    CPU time for vxc     41.90 sec, wall time      0.34 sec
    CPU time for df-vj      9.24 sec, wall time      0.07 sec
E1 = -86.13831457431283  Ecoul = 43.94597836130325  Exc = -6.361978880586884
cycle= 4 E= -22.0905446040635  delta_E= -0.000641  |g|= 0.00579  |ddm|= 0.0667
    CPU time for cycle= 4    123.56 sec, wall time      1.04 sec
  HOMO = -0.210816372418886  LUMO = -0.006327192478369
  mo_energy =
[-8.69092360e-01 -6.78514833e-01 -4.58352856e-01 -4.41644687e-01
 -4.11654429e-01 -2.15010277e-01 -2.10816372e-01 -6.32719248e-03
  2.36608596e-02  6.34928334e-02  7.13853239e-02  1.47591861e-01
  2.18830752e-01  2.33340511e-01  2.43472757e-01  2.88747227e-01
  2.90153961e-01  2.96317535e-01  3.28897488e-01  3.67063212e-01
  3.67792358e-01  3.88518477e-01  3.91394189e-01  4.15806047e-01
  4.34591065e-01  4.80493493e-01  6.36164245e-01  6.47447441e-01
  6.98428249e-01  7.19659622e-01  7.95487109e-01  7.95930863e-01
  8.42665222e-01  8.63198319e-01  8.98521800e-01  9.18250053e-01
  9.45662786e-01  9.77932817e-01  9.94852668e-01  1.01854729e+00
  1.03543035e+00  1.07816115e+00  1.11091195e+00  1.15284732e+00
  1.23327408e+00  1.26384850e+00  1.26400444e+00  1.32771532e+00
  1.40172727e+00  1.58151771e+00  1.63719041e+00  1.80216581e+00
  1.80301905e+00  1.93209566e+00  1.97591636e+00  1.97998053e+00
  1.99821044e+00  2.00893041e+00  2.06696453e+00  2.10257163e+00
  2.11360236e+00  2.14625106e+00  2.14710170e+00  2.17300838e+00
  2.19531920e+00  2.22519218e+00  2.25775730e+00  2.26121057e+00
  2.28043124e+00  2.29330675e+00  2.29374029e+00  2.37418550e+00
  2.40504444e+00  2.44854968e+00  2.44856938e+00  2.48887058e+00
  2.52968906e+00  2.55924394e+00  2.64042023e+00  2.66324927e+00
  2.66734946e+00  2.67696823e+00  2.72139535e+00  2.78692697e+00
  2.82302882e+00  2.83625494e+00  2.92706074e+00  2.98268342e+00
  3.00396544e+00  3.00645389e+00  3.18635157e+00  3.24325955e+00
  3.32351101e+00  3.34421931e+00  3.45095317e+00  3.47376309e+00
  3.52036211e+00  3.52828941e+00  3.60597516e+00  3.70242558e+00
  3.70606119e+00  3.85244360e+00  3.87424790e+00  3.95082959e+00
  3.98825096e+00  4.00735525e+00  4.03069796e+00  4.03292973e+00
  4.27872554e+00  4.29260411e+00  4.37839976e+00  4.51880320e+00
  4.56771090e+00  5.10877820e+00  5.64659959e+00  5.68208647e+00
  5.69850469e+00  5.77485774e+00  5.84160073e+00  5.88040690e+00
  5.94321348e+00  5.95686417e+00  5.97754493e+00  5.99960065e+00
  6.08404950e+00  6.15436933e+00  6.20448102e+00  6.24574331e+00
  6.36075507e+00  6.37386010e+00  6.41087115e+00  6.46234293e+00
  6.53939093e+00  6.60569477e+00  6.62161061e+00  6.62422733e+00
  6.70033760e+00  6.73955541e+00  6.88551311e+00  6.90995841e+00
  6.93337432e+00  7.02753496e+00  7.03680932e+00  7.08599129e+00
  7.12405604e+00  7.14741364e+00  7.17647206e+00  7.18446329e+00
  7.21696887e+00  7.33225228e+00  7.33434357e+00  7.45745032e+00
  7.49073017e+00  7.49225293e+00  7.51912437e+00  7.53942070e+00
  7.54788096e+00  7.60891614e+00  7.62734093e+00  7.69699174e+00
  7.72453644e+00  7.77528681e+00  7.78240022e+00  7.81096702e+00
  7.85932710e+00  7.88928226e+00  7.93305465e+00  7.95911085e+00
  7.96183093e+00  8.02231331e+00  8.05508410e+00  8.07673036e+00
  8.14871909e+00  8.16988975e+00  8.19721969e+00  8.26238035e+00
  8.33363357e+00  8.41816677e+00  8.46851765e+00  8.48004957e+00
  8.54305680e+00  8.56771676e+00  8.67554076e+00  8.68622395e+00
  8.77917077e+00  8.80440381e+00  8.81621646e+00  8.90928057e+00
  8.91242613e+00  8.94333177e+00  9.07117091e+00  9.11464169e+00
  9.15425110e+00  9.21047716e+00  9.24062034e+00  9.32001066e+00
  9.44477023e+00  9.48653440e+00  9.61401867e+00  9.67380424e+00
  9.78046488e+00  9.88886598e+00  9.91586135e+00  9.94999277e+00
  1.00157539e+01  1.00567703e+01  1.00651050e+01  1.06362563e+01
  1.06782377e+01  1.08258030e+01  1.11546751e+01  1.14523418e+01
  1.15492896e+01  1.15670711e+01  1.16204487e+01  1.16484924e+01
  1.16831796e+01  1.18238857e+01  1.18932156e+01  1.21319392e+01
  1.21685383e+01  1.22154969e+01  1.22827011e+01  1.25621408e+01
  1.42264977e+01  1.42413920e+01  1.91035488e+01  1.95164984e+01]
nelec by numeric integration = 14.00002140929069
    CPU time for vxc     38.46 sec, wall time      0.31 sec
    CPU time for df-vj      9.91 sec, wall time      0.08 sec
E1 = -86.1396380913832  Ecoul = 43.94699888298964  Exc = -6.361683601509825
cycle= 5 E= -22.0905523203704  delta_E= -7.72e-06  |g|= 0.000944  |ddm|= 0.0156
    CPU time for cycle= 5    125.07 sec, wall time      1.01 sec
  HOMO = -0.210830978837277  LUMO = -0.00638376505575246
  mo_energy =
[-8.69129393e-01 -6.78599627e-01 -4.58364218e-01 -4.41683041e-01
 -4.11776188e-01 -2.15024957e-01 -2.10830979e-01 -6.38376506e-03
  2.35606620e-02  6.34002619e-02  7.13204704e-02  1.47552770e-01
  2.18744760e-01  2.33257492e-01  2.43404508e-01  2.88666037e-01
  2.90100484e-01  2.96177056e-01  3.28889125e-01  3.66947922e-01
  3.67704322e-01  3.88480862e-01  3.91349553e-01  4.15723938e-01
  4.34489049e-01  4.80401144e-01  6.36116216e-01  6.47329812e-01
  6.98276622e-01  7.19620326e-01  7.95358974e-01  7.95852601e-01
  8.42583418e-01  8.63098356e-01  8.98432721e-01  9.18168197e-01
  9.45604447e-01  9.77843731e-01  9.94767920e-01  1.01846403e+00
  1.03534019e+00  1.07810226e+00  1.11084367e+00  1.15276806e+00
  1.23320399e+00  1.26375398e+00  1.26396700e+00  1.32765858e+00
  1.40162305e+00  1.58143514e+00  1.63713264e+00  1.80213182e+00
  1.80297857e+00  1.93197389e+00  1.97582173e+00  1.97986910e+00
  1.99822041e+00  2.00885609e+00  2.06689699e+00  2.10248719e+00
  2.11354613e+00  2.14612175e+00  2.14704214e+00  2.17286468e+00
  2.19524245e+00  2.22515750e+00  2.25769596e+00  2.26110292e+00
  2.28034882e+00  2.29326140e+00  2.29364927e+00  2.37408864e+00
  2.40492363e+00  2.44843417e+00  2.44847745e+00  2.48879062e+00
  2.52966065e+00  2.55915920e+00  2.64037965e+00  2.66315854e+00
  2.66725448e+00  2.67691734e+00  2.72136094e+00  2.78685673e+00
  2.82297666e+00  2.83615633e+00  2.92699464e+00  2.98263955e+00
  3.00390759e+00  3.00631709e+00  3.18628848e+00  3.24319164e+00
  3.32346569e+00  3.34415847e+00  3.45084979e+00  3.47366090e+00
  3.52032252e+00  3.52826546e+00  3.60585507e+00  3.70236610e+00
  3.70599778e+00  3.85236041e+00  3.87422835e+00  3.95077935e+00
  3.98819619e+00  4.00726376e+00  4.03061353e+00  4.03284904e+00
  4.27864072e+00  4.29256135e+00  4.37833170e+00  4.51871085e+00
  4.56765147e+00  5.10873299e+00  5.64653374e+00  5.68206403e+00
  5.69837555e+00  5.77481171e+00  5.84158278e+00  5.88029305e+00
  5.94311459e+00  5.95677553e+00  5.97741257e+00  5.99954751e+00
  6.08396507e+00  6.15436714e+00  6.20442203e+00  6.24567846e+00
  6.36066543e+00  6.37380019e+00  6.41083537e+00  6.46226303e+00
  6.53928831e+00  6.60557350e+00  6.62153748e+00  6.62421150e+00
  6.70029813e+00  6.73944653e+00  6.88542278e+00  6.90990052e+00
  6.93333657e+00  7.02742236e+00  7.03676197e+00  7.08596034e+00
  7.12397559e+00  7.14731584e+00  7.17635438e+00  7.18443289e+00
  7.21688555e+00  7.33214073e+00  7.33433281e+00  7.45740612e+00
  7.49069471e+00  7.49218574e+00  7.51902492e+00  7.53934979e+00
  7.54780181e+00  7.60885300e+00  7.62722593e+00  7.69685264e+00
  7.72449541e+00  7.77508694e+00  7.78233924e+00  7.81083833e+00
  7.85921433e+00  7.88913250e+00  7.93298706e+00  7.95907895e+00
  7.96177991e+00  8.02233399e+00  8.05505720e+00  8.07662926e+00
  8.14854256e+00  8.16981088e+00  8.19716698e+00  8.26235467e+00
  8.33358282e+00  8.41811701e+00  8.46847717e+00  8.47996155e+00
  8.54301952e+00  8.56760658e+00  8.67548084e+00  8.68614231e+00
  8.77905610e+00  8.80432336e+00  8.81615210e+00  8.90926668e+00
  8.91239194e+00  8.94330383e+00  9.07115959e+00  9.11458412e+00
  9.15423449e+00  9.21041452e+00  9.24056332e+00  9.31995889e+00
  9.44474398e+00  9.48649245e+00  9.61394419e+00  9.67377011e+00
  9.78043185e+00  9.88881516e+00  9.91578567e+00  9.94995872e+00
  1.00157050e+01  1.00566711e+01  1.00650845e+01  1.06361656e+01
  1.06782317e+01  1.08257515e+01  1.11546565e+01  1.14522914e+01
  1.15492387e+01  1.15670151e+01  1.16204157e+01  1.16484160e+01
  1.16830957e+01  1.18238386e+01  1.18931750e+01  1.21319154e+01
  1.21684929e+01  1.22154487e+01  1.22826662e+01  1.25621373e+01
  1.42264342e+01  1.42413382e+01  1.91035918e+01  1.95165442e+01]
nelec by numeric integration = 14.000021417436933
    CPU time for vxc     46.66 sec, wall time      0.37 sec
    CPU time for df-vj      6.45 sec, wall time      0.05 sec
E1 = -86.13813210839267  Ecoul = 43.94524853976317  Exc = -6.361439443625552
cycle= 6 E= -22.0905525227221  delta_E= -2.02e-07  |g|= 0.000298  |ddm|= 0.00228
    CPU time for cycle= 6    111.41 sec, wall time      0.91 sec
  HOMO = -0.210868393600217  LUMO = -0.00641914101681214
  mo_energy =
[-8.69174743e-01 -6.78642536e-01 -4.58417087e-01 -4.41728533e-01
 -4.11801643e-01 -2.15060331e-01 -2.10868394e-01 -6.41914102e-03
  2.35359624e-02  6.33788940e-02  7.12922447e-02  1.47515669e-01
  2.18723636e-01  2.33231877e-01  2.43370369e-01  2.88640402e-01
  2.90063785e-01  2.96164465e-01  3.28840772e-01  3.66934144e-01
  3.67682873e-01  3.88441921e-01  3.91321204e-01  4.15700298e-01
  4.34465435e-01  4.80375176e-01  6.36077991e-01  6.47312102e-01
  6.98263207e-01  7.19573050e-01  7.95339495e-01  7.95819362e-01
  8.42550784e-01  8.63070196e-01  8.98398660e-01  9.18134720e-01
  9.45567506e-01  9.77816133e-01  9.94741098e-01  1.01843533e+00
  1.03531234e+00  1.07806490e+00  1.11081766e+00  1.15274011e+00
  1.23317272e+00  1.26372743e+00  1.26392983e+00  1.32762453e+00
  1.40159960e+00  1.58140766e+00  1.63709761e+00  1.80210449e+00
  1.80294674e+00  1.93195082e+00  1.97579761e+00  1.97984353e+00
  1.99816241e+00  2.00881932e+00  2.06686018e+00  2.10245579e+00
  2.11350660e+00  2.14610004e+00  2.14700149e+00  2.17284778e+00
  2.19520488e+00  2.22511194e+00  2.25765465e+00  2.26107420e+00
  2.28031516e+00  2.29321847e+00  2.29361405e+00  2.37406165e+00
  2.40490026e+00  2.44841048e+00  2.44844859e+00  2.48875514e+00
  2.52961221e+00  2.55912779e+00  2.64033783e+00  2.66312795e+00
  2.66722417e+00  2.67687327e+00  2.72131774e+00  2.78682190e+00
  2.82293858e+00  2.83613039e+00  2.92695795e+00  2.98259947e+00
  3.00387177e+00  3.00629828e+00  3.18624850e+00  3.24315527e+00
  3.32342813e+00  3.34412239e+00  3.45081896e+00  3.47362680e+00
  3.52028128e+00  3.52821646e+00  3.60583326e+00  3.70232937e+00
  3.70595670e+00  3.85233215e+00  3.87418259e+00  3.95073867e+00
  3.98815905e+00  4.00723496e+00  4.03057983e+00  4.03281405e+00
  4.27860756e+00  4.29251825e+00  4.37829495e+00  4.51867975e+00
  4.56761144e+00  5.10869170e+00  5.64649553e+00  5.68201418e+00
  5.69835332e+00  5.77476613e+00  5.84152963e+00  5.88026715e+00
  5.94308373e+00  5.95674191e+00  5.97738836e+00  5.99949819e+00
  6.08392711e+00  6.15431766e+00  6.20438081e+00  6.24564737e+00
  6.36062921e+00  6.37375467e+00  6.41078402e+00  6.46222599e+00
  6.53925637e+00  6.60554581e+00  6.62150244e+00  6.62415964e+00
  6.70025183e+00  6.73941666e+00  6.88539212e+00  6.90985693e+00
  6.93328974e+00  7.02739149e+00  7.03671972e+00  7.08591211e+00
  7.12393488e+00  7.14728087e+00  7.17632443e+00  7.18438327e+00
  7.21684803e+00  7.33211301e+00  7.33427971e+00  7.45736176e+00
  7.49064198e+00  7.49214613e+00  7.51899147e+00  7.53931057e+00
  7.54776625e+00  7.60880665e+00  7.62719557e+00  7.69682948e+00
  7.72444794e+00  7.77507912e+00  7.78229448e+00  7.81081327e+00
  7.85918648e+00  7.88911503e+00  7.93294477e+00  7.95902916e+00
  7.96173984e+00  8.02226873e+00  8.05500828e+00  8.07659402e+00
  8.14853080e+00  8.16977118e+00  8.19712293e+00  8.26230007e+00
  8.33353938e+00  8.41807367e+00  8.46843271e+00  8.47992688e+00
  8.54296987e+00  8.56758102e+00  8.67544222e+00  8.68611218e+00
  8.77902632e+00  8.80428862e+00  8.81611558e+00  8.90921601e+00
  8.91234297e+00  8.94326240e+00  9.07111155e+00  9.11454458e+00
  9.15418429e+00  9.21036884e+00  9.24052163e+00  9.31991978e+00
  9.44469935e+00  9.48645069e+00  9.61390941e+00  9.67372848e+00
  9.78038712e+00  9.88877302e+00  9.91574872e+00  9.94991729e+00
  1.00156606e+01  1.00566404e+01  1.00650296e+01  1.06361338e+01
  1.06781741e+01  1.08257105e+01  1.11546116e+01  1.14522466e+01
  1.15491946e+01  1.15669676e+01  1.16203701e+01  1.16483728e+01
  1.16830648e+01  1.18237997e+01  1.18931326e+01  1.21318689e+01
  1.21684535e+01  1.22154112e+01  1.22826247e+01  1.25620941e+01
  1.42263931e+01  1.42412942e+01  1.91035510e+01  1.95165038e+01]
nelec by numeric integration = 14.000021417098848
    CPU time for vxc     47.21 sec, wall time      0.41 sec
    CPU time for df-vj      6.11 sec, wall time      0.05 sec
E1 = -86.13837864207132  Ecoul = 43.945541288069904  Exc = -6.361485681340317
cycle= 7 E= -22.0905525458088  delta_E= -2.31e-08  |g|= 5.54e-05  |ddm|= 0.000595
    CPU time for cycle= 7    128.70 sec, wall time      1.22 sec
  HOMO = -0.210872374006128  LUMO = -0.00641863729893745
  mo_energy =
[-8.69175797e-01 -6.78639817e-01 -4.58418355e-01 -4.41728975e-01
 -4.11801784e-01 -2.15065252e-01 -2.10872374e-01 -6.41863730e-03
  2.35362582e-02  6.33777908e-02  7.12916060e-02  1.47513814e-01
  2.18721586e-01  2.33230573e-01  2.43369989e-01  2.88638976e-01
  2.90063227e-01  2.96164087e-01  3.28840538e-01  3.66932807e-01
  3.67681214e-01  3.88441796e-01  3.91319908e-01  4.15698084e-01
  4.34464754e-01  4.80373284e-01  6.36077051e-01  6.47310285e-01
  6.98262231e-01  7.19573443e-01  7.95338554e-01  7.95818693e-01
  8.42548639e-01  8.63069926e-01  8.98398091e-01  9.18134146e-01
  9.45567199e-01  9.77816247e-01  9.94739183e-01  1.01843356e+00
  1.03531125e+00  1.07806488e+00  1.11081484e+00  1.15273962e+00
  1.23317155e+00  1.26372700e+00  1.26392782e+00  1.32762271e+00
  1.40159822e+00  1.58140578e+00  1.63709701e+00  1.80209966e+00
  1.80294418e+00  1.93195122e+00  1.97579552e+00  1.97984304e+00
  1.99816429e+00  2.00882032e+00  2.06686069e+00  2.10245598e+00
  2.11350622e+00  2.14609983e+00  2.14700211e+00  2.17284730e+00
  2.19520555e+00  2.22511185e+00  2.25765429e+00  2.26107318e+00
  2.28031507e+00  2.29321762e+00  2.29361561e+00  2.37406089e+00
  2.40489954e+00  2.44840957e+00  2.44844715e+00  2.48875428e+00
  2.52961172e+00  2.55912629e+00  2.64033704e+00  2.66312665e+00
  2.66722325e+00  2.67687302e+00  2.72131652e+00  2.78682103e+00
  2.82293682e+00  2.83612800e+00  2.92695694e+00  2.98259743e+00
  3.00387003e+00  3.00629653e+00  3.18624881e+00  3.24315397e+00
  3.32342538e+00  3.34412086e+00  3.45081856e+00  3.47362787e+00
  3.52027914e+00  3.52821571e+00  3.60583104e+00  3.70232711e+00
  3.70595681e+00  3.85232957e+00  3.87418045e+00  3.95073743e+00
  3.98815622e+00  4.00723331e+00  4.03057947e+00  4.03281370e+00
  4.27860685e+00  4.29251662e+00  4.37829416e+00  4.51867906e+00
  4.56761014e+00  5.10869011e+00  5.64649582e+00  5.68201460e+00
  5.69835365e+00  5.77476642e+00  5.84153118e+00  5.88026755e+00
  5.94308501e+00  5.95674301e+00  5.97739038e+00  5.99950192e+00
  6.08392865e+00  6.15431744e+00  6.20438058e+00  6.24564616e+00
  6.36062973e+00  6.37375600e+00  6.41078549e+00  6.46222637e+00
  6.53925694e+00  6.60554678e+00  6.62150101e+00  6.62416028e+00
  6.70025148e+00  6.73941618e+00  6.88539160e+00  6.90985734e+00
  6.93328890e+00  7.02739216e+00  7.03671899e+00  7.08591274e+00
  7.12393612e+00  7.14728214e+00  7.17632597e+00  7.18438265e+00
  7.21684824e+00  7.33211281e+00  7.33427887e+00  7.45736220e+00
  7.49064298e+00  7.49214670e+00  7.51899239e+00  7.53931186e+00
  7.54776644e+00  7.60880896e+00  7.62719672e+00  7.69683080e+00
  7.72444923e+00  7.77508009e+00  7.78229637e+00  7.81081386e+00
  7.85918623e+00  7.88911508e+00  7.93294577e+00  7.95902997e+00
  7.96173915e+00  8.02227083e+00  8.05500869e+00  8.07659560e+00
  8.14853090e+00  8.16977215e+00  8.19712386e+00  8.26230135e+00
  8.33353903e+00  8.41807370e+00  8.46843232e+00  8.47992744e+00
  8.54297047e+00  8.56757989e+00  8.67544131e+00  8.68611088e+00
  8.77902688e+00  8.80428831e+00  8.81611450e+00  8.90921563e+00
  8.91234342e+00  8.94326019e+00  9.07111025e+00  9.11454379e+00
  9.15418415e+00  9.21036971e+00  9.24052187e+00  9.31991971e+00
  9.44469758e+00  9.48644918e+00  9.61390816e+00  9.67372570e+00
  9.78038594e+00  9.88877260e+00  9.91574876e+00  9.94991576e+00
  1.00156616e+01  1.00566397e+01  1.00650310e+01  1.06361332e+01
  1.06781740e+01  1.08257102e+01  1.11546099e+01  1.14522471e+01
  1.15491951e+01  1.15669689e+01  1.16203702e+01  1.16483741e+01
  1.16830644e+01  1.18237987e+01  1.18931318e+01  1.21318684e+01
  1.21684525e+01  1.22154099e+01  1.22826237e+01  1.25620920e+01
  1.42263940e+01  1.42412952e+01  1.91035502e+01  1.95165029e+01]
nelec by numeric integration = 14.000021416522069
    CPU time for vxc     36.48 sec, wall time      0.29 sec
    CPU time for df-vj      8.93 sec, wall time      0.07 sec
E1 = -86.13841667994396  Ecoul = 43.945584078836234  Exc = -6.3614904349370756
cycle= 8 E= -22.0905525465118  delta_E= -7.03e-10  |g|= 9.28e-06  |ddm|= 0.00015
    CPU time for cycle= 8    117.25 sec, wall time      1.03 sec
  HOMO = -0.210875421130244  LUMO = -0.00641969911686518
  mo_energy =
[-8.69179294e-01 -6.78643280e-01 -4.58420973e-01 -4.41731635e-01
 -4.11805085e-01 -2.15068149e-01 -2.10875421e-01 -6.41969912e-03
  2.35350670e-02  6.33767925e-02  7.12907048e-02  1.47511331e-01
  2.18720695e-01  2.33229619e-01  2.43368674e-01  2.88637461e-01
  2.90061691e-01  2.96162630e-01  3.28839318e-01  3.66931539e-01
  3.67679885e-01  3.88440511e-01  3.91318807e-01  4.15696957e-01
  4.34463608e-01  4.80372048e-01  6.36076095e-01  6.47309334e-01
  6.98261323e-01  7.19572536e-01  7.95337556e-01  7.95817815e-01
  8.42547358e-01  8.63068364e-01  8.98396643e-01  9.18132672e-01
  9.45565774e-01  9.77814591e-01  9.94737442e-01  1.01843209e+00
  1.03530981e+00  1.07806329e+00  1.11081344e+00  1.15273792e+00
  1.23316995e+00  1.26372535e+00  1.26392629e+00  1.32762126e+00
  1.40159699e+00  1.58140441e+00  1.63709497e+00  1.80209757e+00
  1.80294217e+00  1.93194959e+00  1.97579375e+00  1.97984141e+00
  1.99816287e+00  2.00881883e+00  2.06685925e+00  2.10245443e+00
  2.11350413e+00  2.14609825e+00  2.14700046e+00  2.17284591e+00
  2.19520432e+00  2.22511059e+00  2.25765297e+00  2.26107137e+00
  2.28031351e+00  2.29321581e+00  2.29361346e+00  2.37405892e+00
  2.40489794e+00  2.44840778e+00  2.44844529e+00  2.48875274e+00
  2.52961020e+00  2.55912397e+00  2.64033518e+00  2.66312451e+00
  2.66722178e+00  2.67687093e+00  2.72131460e+00  2.78681914e+00
  2.82293510e+00  2.83612624e+00  2.92695505e+00  2.98259567e+00
  3.00386806e+00  3.00629483e+00  3.18624661e+00  3.24315194e+00
  3.32342312e+00  3.34411856e+00  3.45081638e+00  3.47362578e+00
  3.52027699e+00  3.52821334e+00  3.60582919e+00  3.70232523e+00
  3.70595455e+00  3.85232719e+00  3.87417832e+00  3.95073511e+00
  3.98815405e+00  4.00723115e+00  4.03057686e+00  4.03281125e+00
  4.27860443e+00  4.29251428e+00  4.37829171e+00  4.51867649e+00
  4.56760771e+00  5.10868701e+00  5.64649359e+00  5.68201257e+00
  5.69835153e+00  5.77476410e+00  5.84152904e+00  5.88026566e+00
  5.94308336e+00  5.95674098e+00  5.97738867e+00  5.99950001e+00
  6.08392653e+00  6.15431432e+00  6.20437811e+00  6.24564314e+00
  6.36062709e+00  6.37375339e+00  6.41078339e+00  6.46222371e+00
  6.53925470e+00  6.60554439e+00  6.62149845e+00  6.62415821e+00
  6.70024913e+00  6.73941353e+00  6.88538926e+00  6.90985467e+00
  6.93328667e+00  7.02738955e+00  7.03671669e+00  7.08591070e+00
  7.12393358e+00  7.14728052e+00  7.17632429e+00  7.18438050e+00
  7.21684570e+00  7.33211018e+00  7.33427722e+00  7.45735982e+00
  7.49064070e+00  7.49214464e+00  7.51899058e+00  7.53931039e+00
  7.54776398e+00  7.60880701e+00  7.62719466e+00  7.69682927e+00
  7.72444779e+00  7.77507855e+00  7.78229498e+00  7.81081224e+00
  7.85918429e+00  7.88911281e+00  7.93294393e+00  7.95902812e+00
  7.96173688e+00  8.02226953e+00  8.05500634e+00  8.07659355e+00
  8.14852903e+00  8.16976975e+00  8.19712204e+00  8.26229920e+00
  8.33353662e+00  8.41807094e+00  8.46843008e+00  8.47992525e+00
  8.54296825e+00  8.56757744e+00  8.67543882e+00  8.68610772e+00
  8.77902453e+00  8.80428589e+00  8.81611200e+00  8.90921264e+00
  8.91234077e+00  8.94325699e+00  9.07110662e+00  9.11454037e+00
  9.15418137e+00  9.21036713e+00  9.24051881e+00  9.31991574e+00
  9.44469420e+00  9.48644646e+00  9.61390529e+00  9.67372294e+00
  9.78038244e+00  9.88876927e+00  9.91574546e+00  9.94991219e+00
  1.00156576e+01  1.00566365e+01  1.00650276e+01  1.06361294e+01
  1.06781707e+01  1.08257071e+01  1.11546065e+01  1.14522440e+01
  1.15491918e+01  1.15669657e+01  1.16203669e+01  1.16483709e+01
  1.16830609e+01  1.18237954e+01  1.18931286e+01  1.21318649e+01
  1.21684490e+01  1.22154062e+01  1.22826203e+01  1.25620880e+01
  1.42263907e+01  1.42412919e+01  1.91035448e+01  1.95164975e+01]
nelec by numeric integration = 14.000021416307844
    CPU time for vxc     37.60 sec, wall time      0.30 sec
    CPU time for df-vj      7.97 sec, wall time      0.06 sec
E1 = -86.1384745442432  Ecoul = 43.94565175092727  Exc = -6.361500242704508
Extra cycle  E= -22.0905525464875  delta_E= 2.44e-11  |g|= 1.41e-05  |ddm|= 3.34e-05
    CPU time for scf_cycle   1314.98 sec, wall time     11.14 sec
    CPU time for SCF   1315.00 sec, wall time     11.14 sec
converged SCF energy = -22.0905525464875
