#INFO: **** input file is /home/nkousuke/lustre/toBeSync/turboRVB/05turbo-genius-development/turbogenius_paper/04data/sanity_checks/03pyscf_HF_turbo_VMC_via_trexio/00open_boundary/results/HCN/pyscf-HF-workflow/run.py ****

from pyscf_wrapper import Pyscf_wrapper

# input variables
pyscf_chkfile="pyscf.chk"
structure_file="HCN.xyz"

# input variables
omp_num_threads=128
charge=0
spin=0
basis="ccecp-ccpvqz"
ecp="ccecp"
scf_method="HF"
dft_xc="NA"
solver_newton=False
MP2_flag=False
CCSD_flag=False
pyscf_output="out.pyscf"
twist_average=False
exp_to_discard=0.0
kpt=[0.0, 0.0, 0.0]
kpt_grid=[1, 1, 1]
smearing_method="fermi"
smearing_sigma=0.0

pyscf_calc=Pyscf_wrapper(
                        structure_file=structure_file,
                        chkfile=pyscf_chkfile,
                        )

pyscf_calc.run_pyscf(
                  omp_num_threads=omp_num_threads,
                  charge=charge,
                  spin=spin,
                  basis=basis,
                  ecp=ecp,
                  scf_method=scf_method,
                  dft_xc=dft_xc,
                  solver_newton=solver_newton,
                  MP2_flag=MP2_flag,
                  CCSD_flag=CCSD_flag,
                  pyscf_output=pyscf_output,
                  twist_average=twist_average,
                  exp_to_discard=exp_to_discard,
                  kpt=kpt,
                  kpt_grid=kpt_grid,
                  smearing_method=smearing_method,
                  smearing_sigma=smearing_sigma
                  )
                #INFO: ******************** input file end ********************


System: uname_result(system='Linux', node='spcc-200', release='5.4.0-66-generic', version='#74-Ubuntu SMP Wed Jan 27 22:54:38 UTC 2021', machine='x86_64', processor='x86_64')  Threads 128
Python 3.7.3 (default, Mar 27 2019, 22:11:17) 
[GCC 7.3.0]
numpy 1.20.1  scipy 1.7.3
Date: Mon Dec 19 18:03:42 2022
PySCF version 2.0.1
PySCF path  /home/nkousuke/application/anaconda3/lib/python3.7/site-packages/pyscf

[CONFIG] conf_file /home/nkousuke/.pyscf_conf.py
[INPUT] verbose = 5
[INPUT] max_memory = 507492.78125 
[INPUT] num. atoms = 3
[INPUT] num. electrons = 10
[INPUT] charge = 0
[INPUT] spin (= nelec alpha-beta = 2S) = 0
[INPUT] symmetry False subgroup None
[INPUT] Mole.unit = A
[INPUT]  1 C      0.000000000000   0.000000000000  -0.438000000000 AA    0.000000000000   0.000000000000  -0.827700042559 Bohr
[INPUT]  2 H      0.000000000000   0.000000000000  -1.502960000000 AA    0.000000000000   0.000000000000  -2.840182776176 Bohr
[INPUT]  3 N      0.000000000000   0.000000000000   0.715240000000 AA    0.000000000000   0.000000000000   1.351607713334 Bohr
[INPUT] ---------------- BASIS SET ---------------- 
[INPUT] l, kappa, [nprim/nctr], expnt,             c_1 c_2 ...
[INPUT] C
[INPUT] 0    0    [9    /1   ]  13.073594         0.0051583
                                6.541187          0.0603424
                                4.573411          -0.1978471
                                1.637494          -0.081034
                                0.819297          0.2321726
                                0.409924          0.2914643
                                0.2313            0.4336405
                                0.102619          0.213194
                                0.051344          0.0049848
[INPUT] 0    0    [1    /1   ]  0.846879             1
[INPUT] 0    0    [1    /1   ]  0.269659             1
[INPUT] 0    0    [1    /1   ]  0.109576             1
[INPUT] 1    0    [9    /1   ]  9.934169          0.0209076
                                3.886955          0.0572698
                                1.871016          0.1122682
                                0.935757          0.2130082
                                0.468003          0.2835815
                                0.239473          0.3011207
                                0.117063          0.2016934
                                0.058547          0.0453575
                                0.029281          0.0029775
[INPUT] 1    0    [1    /1   ]  0.804681             1
[INPUT] 1    0    [1    /1   ]  0.313254             1
[INPUT] 1    0    [1    /1   ]  0.105389             1
[INPUT] 2    0    [1    /1   ]  2.01376              1
[INPUT] 2    0    [1    /1   ]  0.684884             1
[INPUT] 2    0    [1    /1   ]  0.240171             1
[INPUT] 3    0    [1    /1   ]  0.457302             1
[INPUT] 3    0    [1    /1   ]  1.32493              1
[INPUT] 4    0    [1    /1   ]  1.03418              1
[INPUT] N
[INPUT] 0    0    [9    /1   ]  42.693822         -0.0009357
                                19.963207         0.0063295
                                9.3345971         0.0105038
                                4.9278187         -0.1653735
                                2.04092           -0.0005352
                                0.96708           0.2452063
                                0.476131          0.4582128
                                0.211443          0.3641224
                                0.098869          0.0620406
[INPUT] 0    0    [1    /1   ]  1.625001             1
[INPUT] 0    0    [1    /1   ]  0.310826             1
[INPUT] 0    0    [1    /1   ]  0.135764             1
[INPUT] 1    0    [9    /1   ]  18.925871         0.0073505
                                9.225603          0.0292844
                                4.581431          0.0652168
                                2.300164          0.1405153
                                1.154825          0.2328188
                                0.582039          0.2989556
                                0.290535          0.2802507
                                0.145867          0.1527995
                                0.073234          0.0355475
[INPUT] 1    0    [1    /1   ]  1.02075              1
[INPUT] 1    0    [1    /1   ]  0.413103             1
[INPUT] 1    0    [1    /1   ]  0.140736             1
[INPUT] 2    0    [1    /1   ]  3.028459             1
[INPUT] 2    0    [1    /1   ]  1.009895             1
[INPUT] 2    0    [1    /1   ]  0.346233             1
[INPUT] 3    0    [1    /1   ]  2.024747             1
[INPUT] 3    0    [1    /1   ]  0.691129             1
[INPUT] 4    0    [1    /1   ]  1.357512             1
[INPUT] H
[INPUT] 0    0    [8    /1   ]  23.843185         0.0041149
                                10.212443         0.0104644
                                4.374164          0.0280111
                                1.873529          0.0758862
                                0.802465          0.1821062
                                0.343709          0.3485214
                                0.147217          0.3782313
                                0.063055          0.1164241
[INPUT] 0    0    [1    /1   ]  0.081856             1
[INPUT] 0    0    [1    /1   ]  0.233254             1
[INPUT] 0    0    [1    /1   ]  0.664673             1
[INPUT] 1    0    [1    /1   ]  0.284469             1
[INPUT] 1    0    [1    /1   ]  0.847159             1
[INPUT] 1    0    [1    /1   ]  2.522868             1
[INPUT] 2    0    [1    /1   ]  0.665279             1
[INPUT] 2    0    [1    /1   ]  2.048739             1
[INPUT] 3    0    [1    /1   ]  1.42146              1

nuclear repulsion = 12.3576284910304
number of shells = 38
number of NR pGTOs = 209
number of NR cGTOs = 138
basis = ccecp-ccpvqz
ecp = ccecp
CPU time:         7.03


******** <class 'pyscf.scf.hf.RHF'> ********
method = RHF
initial guess = minao
damping factor = 0
level_shift factor = 0
DIIS = <class 'pyscf.scf.diis.CDIIS'>
diis_start_cycle = 1
diis_space = 8
SCF conv_tol = 1e-09
SCF conv_tol_grad = None
SCF max_cycles = 200
direct_scf = True
direct_scf_tol = 1e-13
chkfile to save SCF result = pyscf.chk
max_memory 507492 MB (current use 106 MB)
Set gradient conv threshold to 3.16228e-05
E1 = -47.9113265422595  E_coul = 20.17270961997505
init E= -15.380988431254
cond(S) = 49244.33503478254
    CPU time for initialize scf    147.86 sec, wall time      1.40 sec
  HOMO = -0.446049489531679  LUMO = 0.0443646610554205
  mo_energy =
[-1.58318411 -0.80466059 -0.47282623 -0.44604949 -0.44604949  0.04436466
  0.04436466  0.11618995  0.16063178  0.33819844  0.33819844  0.34083429
  0.40280455  0.46223493  0.47798491  0.47798491  0.61617905  0.61617905
  0.6633957   0.68467213  0.68467213  0.84536878  1.05760831  1.05760831
  1.08234419  1.08422569  1.08422569  1.19366578  1.23786811  1.34160298
  1.34160298  1.45220506  1.55754076  1.55754076  1.76544594  1.76544594
  1.91057401  1.91057401  1.947241    1.947241    1.96654134  2.09014623
  2.09014623  2.18722328  2.29727536  2.29727536  2.33652008  2.33652008
  2.43843079  2.58830223  2.62683742  2.62683742  2.73808423  2.77783185
  2.77783185  2.92846879  2.92846879  3.13612722  3.20652836  3.20652836
  3.38244808  3.38244808  3.53637116  3.53637116  3.71489386  4.00818143
  4.03874075  4.03874075  4.36791384  4.36791384  4.68760608  4.93618743
  5.10657488  5.10657488  5.16485318  5.16485318  5.56624533  5.56624533
  5.56926793  5.56926793  5.78608833  5.78608833  5.85941447  5.85941447
  5.97252076  6.03505389  6.03505389  6.22019216  6.24175113  6.24175113
  6.4127648   6.4127648   6.71010503  6.71010503  6.83360548  6.83360548
  7.00081387  7.12998014  7.12998014  7.30727146  7.40690903  7.40690903
  7.70350648  7.70350648  7.7615958   7.7615958   7.83723371  8.08516475
  8.11841598  8.11841598  8.22650825  8.22650825  8.30107429  8.53198871
  8.53198871  8.83177681  8.83177681  8.91462698  8.91462698  9.30159512
  9.32068795  9.32068795  9.56181329  9.56181329 10.03135279 10.07692214
 10.07692214 10.26386859 10.26386859 10.72901794 11.46230855 11.46230855
 12.16437384 12.87658639 12.87658639 14.20649718 18.76386551 20.30716869]
E1 = -49.14793858565911  E_coul = 21.06408068356422
cycle= 1 E= -15.7262294110645  delta_E= -0.345  |g|= 0.428  |ddm|= 3.39
    CPU time for cycle= 1     48.47 sec, wall time      0.42 sec
  HOMO = -0.480031293097832  LUMO = 0.0718755956714527
  mo_energy =
[-1.21608217 -0.89069285 -0.48454056 -0.48003129 -0.48003129  0.0718756
  0.14435955  0.14435955  0.17843736  0.33996747  0.33996747  0.35342484
  0.39353751  0.49807434  0.55889438  0.55889438  0.60297895  0.60297895
  0.63253609  0.63253609  0.68537859  0.87343451  1.03038285  1.09493006
  1.09493006  1.1414931   1.1414931   1.2557358   1.27613172  1.43935221
  1.43935221  1.46973677  1.54286433  1.54286433  1.73962498  1.73962498
  1.86600311  1.86600311  1.88196861  1.88196861  2.00397645  2.08294814
  2.08294814  2.2682255   2.31234999  2.31234999  2.42837103  2.46332645
  2.46332645  2.51519644  2.56721471  2.56721471  2.88071407  2.91120524
  2.91120524  2.91668216  2.91668216  3.17729496  3.39532242  3.39532242
  3.48973079  3.48973079  3.63775799  3.63775799  3.67442847  4.01010191
  4.01010191  4.06504816  4.44079212  4.44079212  4.80038     5.04313895
  5.09578468  5.09578468  5.12360977  5.12360977  5.51592649  5.51592649
  5.54535239  5.54535239  5.74542418  5.74542418  5.92302492  5.92302492
  5.93578508  6.05504345  6.05504345  6.29411597  6.31104036  6.31104036
  6.31861886  6.31861886  6.67668826  6.67668826  6.98046225  7.02303893
  7.02303893  7.33663756  7.33663756  7.40835246  7.56038653  7.56038653
  7.6433898   7.6433898   7.70760511  7.70760511  7.79696843  8.12444845
  8.12722799  8.12722799  8.15688047  8.15688047  8.40372279  8.70791762
  8.70791762  9.03748345  9.03748345  9.06844973  9.06844973  9.39488386
  9.46515551  9.46515551  9.53606803  9.53606803 10.14728505 10.20393619
 10.20393619 10.48498335 10.48498335 10.77155418 11.55555907 11.55555907
 12.28267052 13.0165064  13.0165064  14.29060819 18.98875837 20.37296035]
E1 = -48.77923109004325  E_coul = 20.672644857580476
cycle= 2 E= -15.7489577414323  delta_E= -0.0227  |g|= 0.389  |ddm|= 0.867
    CPU time for cycle= 2     50.87 sec, wall time      0.41 sec
  HOMO = -0.50166662079879  LUMO = 0.0970900627548781
  mo_energy =
[-1.248415   -0.82316474 -0.57747683 -0.50166662 -0.50166662  0.09709006
  0.14629188  0.14629188  0.18580762  0.35694807  0.35694807  0.35737716
  0.41756595  0.48851828  0.53080968  0.53080968  0.62278932  0.62278932
  0.66115643  0.66115643  0.68536298  0.8667089   1.06655328  1.09558983
  1.09558983  1.10450224  1.10450224  1.245381    1.27309082  1.39587098
  1.39587098  1.48140394  1.59773722  1.59773722  1.77513452  1.77513452
  1.9055985   1.9055985   1.93111486  1.93111486  2.01300218  2.12619342
  2.12619342  2.23858795  2.32453973  2.32453973  2.40333833  2.40333833
  2.46128577  2.5599412   2.60589292  2.60589292  2.81155453  2.84487014
  2.84487014  2.92254224  2.92254224  3.165552    3.29176313  3.29176313
  3.44665077  3.44665077  3.59400487  3.59400487  3.72087405  4.03503341
  4.03503341  4.05365563  4.43403989  4.43403989  4.77184326  5.03104818
  5.1444883   5.1444883   5.18997985  5.18997985  5.60328963  5.60328963
  5.64208585  5.64208585  5.82880676  5.82880676  5.9406179   5.9406179
  6.02202746  6.10916364  6.10916364  6.31946599  6.32575936  6.32575936
  6.37748543  6.37748543  6.77513328  6.77513328  6.91472436  6.91472436
  7.02628497  7.22200597  7.22200597  7.35398617  7.48898112  7.48898112
  7.67355602  7.67355602  7.75679235  7.75679235  7.83921837  8.1419606
  8.16551454  8.16551454  8.20550222  8.20550222  8.34886959  8.61637298
  8.61637298  8.92037791  8.92037791  8.97354605  8.97354605  9.3636322
  9.42197237  9.42197237  9.53638874  9.53638874 10.12203202 10.16624104
 10.16624104 10.3512282  10.3512282  10.78287691 11.52648884 11.52648884
 12.26137871 12.95984602 12.95984602 14.29714261 18.86830901 20.43893608]
E1 = -49.02538256490587  E_coul = 20.887003930977045
cycle= 3 E= -15.7807501428984  delta_E= -0.0318  |g|= 0.043  |ddm|= 0.469
    CPU time for cycle= 3     67.10 sec, wall time      0.53 sec
  HOMO = -0.497381674414355  LUMO = 0.10118422987322
  mo_energy =
[-1.24117676 -0.81617941 -0.57748985 -0.49738167 -0.49738167  0.10118423
  0.15431905  0.15431905  0.18843994  0.35776421  0.35799019  0.35799019
  0.42350177  0.49140917  0.53389006  0.53389006  0.62400683  0.62400683
  0.66786095  0.66786095  0.68805123  0.87012593  1.07165623  1.09951008
  1.09951008  1.1059981   1.1059981   1.24798814  1.27805986  1.39719008
  1.39719008  1.48999515  1.59860152  1.59860152  1.77628255  1.77628255
  1.91182963  1.91182963  1.94024443  1.94024443  2.01601202  2.12725328
  2.12725328  2.24368386  2.33044918  2.33044918  2.4108317   2.4108317
  2.46617107  2.57194981  2.61339409  2.61339409  2.81572296  2.84645449
  2.84645449  2.93090371  2.93090371  3.17260333  3.29844368  3.29844368
  3.45233636  3.45233636  3.59730405  3.59730405  3.73299372  4.04441796
  4.04441796  4.06017153  4.44161534  4.44161534  4.78017503  5.0391578
  5.15001238  5.15001238  5.18927485  5.18927485  5.61098583  5.61098583
  5.64068708  5.64068708  5.82736599  5.82736599  5.94661348  5.94661348
  6.02800485  6.11743442  6.11743442  6.32842421  6.3346253   6.3346253
  6.39288534  6.39288534  6.77359972  6.77359972  6.91911595  6.91911595
  7.04486957  7.23618805  7.23618805  7.36655245  7.49519549  7.49519549
  7.6905808   7.6905808   7.76953079  7.76953079  7.85799504  8.15505456
  8.17743494  8.17743494  8.22526658  8.22526658  8.36535259  8.62758216
  8.62758216  8.9308364   8.9308364   8.98539567  8.98539567  9.37469593
  9.43590431  9.43590431  9.56001266  9.56001266 10.14055782 10.18284372
 10.18284372 10.36569351 10.36569351 10.80447232 11.54312941 11.54312941
 12.28046064 12.97605176 12.97605176 14.31365327 18.88902261 20.44153223]
E1 = -48.999646663750305  E_coul = 20.860426681510873
cycle= 4 E= -15.781591491209  delta_E= -0.000841  |g|= 0.00896  |ddm|= 0.0963
    CPU time for cycle= 4     74.14 sec, wall time      0.60 sec
  HOMO = -0.498692717868546  LUMO = 0.100811531575865
  mo_energy =
[-1.24394522 -0.81746864 -0.58069231 -0.49869272 -0.49869272  0.10081153
  0.15308004  0.15308004  0.18790196  0.3574677   0.35748809  0.35748809
  0.42241913  0.49115567  0.53311736  0.53311736  0.62328561  0.62328561
  0.66704589  0.66704589  0.68724332  0.8690752   1.07105946  1.09870541
  1.09870541  1.10504738  1.10504738  1.24721158  1.27683435  1.39648434
  1.39648434  1.48778158  1.59743049  1.59743049  1.77561171  1.77561171
  1.91077142  1.91077142  1.93892009  1.93892009  2.01487589  2.12597786
  2.12597786  2.24220314  2.3288832   2.3288832   2.40852359  2.40852359
  2.46505337  2.57014232  2.61219696  2.61219696  2.8141871   2.84471536
  2.84471536  2.92934634  2.92934634  3.17113151  3.29575778  3.29575778
  3.45107815  3.45107815  3.59594311  3.59594311  3.73094034  4.04304261
  4.04304261  4.05894687  4.43934502  4.43934502  4.77764622  5.03640141
  5.14826442  5.14826442  5.18816328  5.18816328  5.60898432  5.60898432
  5.63901503  5.63901503  5.82586423  5.82586423  5.94429779  5.94429779
  6.02599954  6.11511247  6.11511247  6.32578639  6.33188816  6.33188816
  6.39093634  6.39093634  6.77177524  6.77177524  6.91585957  6.91585957
  7.0424233   7.23171118  7.23171118  7.36376217  7.49259704  7.49259704
  7.68855817  7.68855817  7.76733979  7.76733979  7.85517956  8.15259138
  8.17459308  8.17459308  8.22285637  8.22285637  8.36187946  8.62557066
  8.62557066  8.92609027  8.92609027  8.98287535  8.98287535  9.37277729
  9.43154276  9.43154276  9.55718451  9.55718451 10.13714743 10.17900998
 10.17900998 10.36088899 10.36088899 10.80089518 11.53962389 11.53962389
 12.27669803 12.97263288 12.97263288 14.31042292 18.8832114  20.43853015]
E1 = -49.00551463368771  E_coul = 20.866257196919296
cycle= 5 E= -15.781628945738  delta_E= -3.75e-05  |g|= 0.00229  |ddm|= 0.0254
    CPU time for cycle= 5     30.16 sec, wall time      0.24 sec
  HOMO = -0.497978143425107  LUMO = 0.100829304997738
  mo_energy =
[-1.24306153 -0.81697097 -0.58061132 -0.49797814 -0.49797814  0.1008293
  0.15347731  0.15347731  0.18801758  0.35748505  0.35778662  0.35778662
  0.42248619  0.49127957  0.53333527  0.53333527  0.6236157   0.6236157
  0.66714979  0.66714979  0.68742081  0.86920889  1.07124254  1.09891152
  1.09891152  1.10516388  1.10516388  1.24737173  1.27721589  1.39658293
  1.39658293  1.48807709  1.59821552  1.59821552  1.77612768  1.77612768
  1.91102632  1.91102632  1.93915234  1.93915234  2.01528341  2.12673467
  2.12673467  2.24249207  2.32913791  2.32913791  2.40900734  2.40900734
  2.46555712  2.57024547  2.6123812   2.6123812   2.81442192  2.84480372
  2.84480372  2.9294541   2.9294541   3.17134757  3.2960154   3.2960154
  3.45126383  3.45126383  3.5961602   3.5961602   3.73123296  4.04318829
  4.04318829  4.05924918  4.43993115  4.43993115  4.77828531  5.03725224
  5.1489211   5.1489211   5.18908132  5.18908132  5.6097592   5.6097592
  5.64034875  5.64034875  5.82700201  5.82700201  5.94510227  5.94510227
  6.0269496   6.11598724  6.11598724  6.32670955  6.33270764  6.33270764
  6.39093538  6.39093538  6.77308117  6.77308117  6.91596405  6.91596405
  7.0426176   7.23244748  7.23244748  7.36417152  7.49296129  7.49296129
  7.68840951  7.68840951  7.76759382  7.76759382  7.85535897  8.15305805
  8.17525842  8.17525842  8.2227095   8.2227095   8.36234043  8.62593444
  8.62593444  8.92639918  8.92639918  8.98313406  8.98313406  9.37321719
  9.43220598  9.43220598  9.55700806  9.55700806 10.13776639 10.17976876
 10.17976876 10.3614633  10.3614633  10.80136329 11.54023702 11.54023702
 12.27758779 12.97331539 12.97331539 14.31125141 18.88437368 20.44025121]
E1 = -49.003209681944895  E_coul = 20.863949405388674
cycle= 6 E= -15.7816317855258  delta_E= -2.84e-06  |g|= 0.000528  |ddm|= 0.00717
    CPU time for cycle= 6     70.25 sec, wall time      0.56 sec
  HOMO = -0.498149328275277  LUMO = 0.100861152114207
  mo_energy =
[-1.24334117 -0.81698792 -0.5808613  -0.49814933 -0.49814933  0.10086115
  0.15342001  0.15342001  0.18798553  0.35746     0.35772877  0.35772877
  0.42246564  0.49124409  0.53325891  0.53325891  0.62356629  0.62356629
  0.66717926  0.66717926  0.68736971  0.86915677  1.07126926  1.09887504
  1.09887504  1.10504699  1.10504699  1.24727192  1.27713849  1.39647414
  1.39647414  1.4879993   1.5980995   1.5980995   1.77609239  1.77609239
  1.91102836  1.91102836  1.93917457  1.93917457  2.01518468  2.12661813
  2.12661813  2.24236415  2.32904482  2.32904482  2.40884649  2.40884649
  2.46551362  2.57024287  2.6123853   2.6123853   2.81425913  2.84460469
  2.84460469  2.92940889  2.92940889  3.17125388  3.29578953  3.29578953
  3.45112909  3.45112909  3.59600878  3.59600878  3.7311897   4.04316932
  4.04316932  4.05914115  4.43977739  4.43977739  4.77808941  5.03702778
  5.14882569  5.14882569  5.1890003   5.1890003   5.60970348  5.60970348
  5.64013406  5.64013406  5.82686574  5.82686574  5.94489337  5.94489337
  6.02685414  6.11584411  6.11584411  6.32649221  6.33249444  6.33249444
  6.39096484  6.39096484  6.77288162  6.77288162  6.91568404  6.91568404
  7.04255829  7.2322082   7.2322082   7.36403287  7.49273206  7.49273206
  7.6883989   7.6883989   7.76755216  7.76755216  7.85530034  8.15292637
  8.17511377  8.17511377  8.22270417  8.22270417  8.36218066  8.62574618
  8.62574618  8.926099    8.926099    8.98297817  8.98297817  9.37306958
  9.43194805  9.43194805  9.55702976  9.55702976 10.1375945  10.17958116
 10.17958116 10.3612048  10.3612048  10.80125275 11.54008269 11.54008269
 12.2773984  12.97313612 12.97313612 14.31106405 18.88412233 20.43989563]
E1 = -49.00354052723117  E_coul = 20.864280114115875
cycle= 7 E= -15.7816319220849  delta_E= -1.37e-07  |g|= 7.06e-05  |ddm|= 0.00168
    CPU time for cycle= 7     76.27 sec, wall time      0.60 sec
  HOMO = -0.498144142435133  LUMO = 0.100866033768712
  mo_energy =
[-1.24334576 -0.816977   -0.58086778 -0.49814414 -0.49814414  0.10086603
  0.15341817  0.15341817  0.18798517  0.35745979  0.35773115  0.35773115
  0.42247085  0.49124393  0.53325456  0.53325456  0.62357133  0.62357133
  0.66718539  0.66718539  0.68736828  0.86915857  1.07127619  1.09887716
  1.09887716  1.10504338  1.10504338  1.24726979  1.27714263  1.39646918
  1.39646918  1.48800188  1.59811058  1.59811058  1.77610097  1.77610097
  1.91103563  1.91103563  1.93918165  1.93918165  2.01518753  2.12662825
  2.12662825  2.24236172  2.32904663  2.32904663  2.40884225  2.40884225
  2.46552113  2.57024952  2.61239334  2.61239334  2.81425364  2.84459763
  2.84459763  2.92941219  2.92941219  3.17125388  3.29577854  3.29577854
  3.45112491  3.45112491  3.59600657  3.59600657  3.73119397  4.04317392
  4.04317392  4.05914122  4.43977959  4.43977959  4.77809021  5.03703042
  5.14883575  5.14883575  5.18901525  5.18901525  5.60971404  5.60971404
  5.64015092  5.64015092  5.82688249  5.82688249  5.94490216  5.94490216
  6.02686416  6.1158524   6.1158524   6.32650065  6.33249993  6.33249993
  6.3909731   6.3909731   6.77289877  6.77289877  6.91567395  6.91567395
  7.04256006  7.23219387  7.23219387  7.36402751  7.49272829  7.49272829
  7.68840194  7.68840194  7.76756025  7.76756025  7.8553039   8.15292777
  8.1751196   8.1751196   8.22270783  8.22270783  8.3621758   8.62573788
  8.62573788  8.92608459  8.92608459  8.98297187  8.98297187  9.37306792
  9.43193991  9.43193991  9.55703385  9.55703385 10.13759197 10.17957925
 10.17957925 10.36119115 10.36119115 10.80125092 11.54008039 11.54008039
 12.27739656 12.97313183 12.97313183 14.31106436 18.88410364 20.4399091 ]
E1 = -49.00356072771939  E_coul = 20.8643003130119
cycle= 8 E= -15.7816319236771  delta_E= -1.59e-09  |g|= 5.92e-06  |ddm|= 0.000168
    CPU time for cycle= 8     23.55 sec, wall time      0.18 sec
  HOMO = -0.498143983957822  LUMO = 0.100866076387523
  mo_energy =
[-1.24334645 -0.81697691 -0.58086725 -0.49814398 -0.49814398  0.10086608
  0.15341788  0.15341788  0.18798489  0.35745983  0.35773127  0.35773127
  0.42247067  0.49124385  0.53325425  0.53325425  0.62357134  0.62357134
  0.66718525  0.66718525  0.68736801  0.86915835  1.07127633  1.09887703
  1.09887703  1.1050431   1.1050431   1.24726968  1.27714249  1.39646901
  1.39646901  1.48800143  1.59811096  1.59811096  1.7761011   1.7761011
  1.91103554  1.91103554  1.9391815   1.9391815   2.01518744  2.12662847
  2.12662847  2.24236131  2.32904636  2.32904636  2.40884176  2.40884176
  2.46552134  2.57024904  2.6123932   2.6123932   2.81425353  2.84459708
  2.84459708  2.92941186  2.92941186  3.17125355  3.29577784  3.29577784
  3.45112458  3.45112458  3.59600625  3.59600625  3.73119372  4.04317353
  4.04317353  4.05914095  4.4397795   4.4397795   4.77808983  5.03703013
  5.14883567  5.14883567  5.18901566  5.18901566  5.60971431  5.60971431
  5.64015202  5.64015202  5.82688315  5.82688315  5.94490183  5.94490183
  6.02686477  6.11585242  6.11585242  6.32650035  6.33249976  6.33249976
  6.39097247  6.39097247  6.77289976  6.77289976  6.91567316  6.91567316
  7.04255914  7.23219332  7.23219332  7.36402706  7.49272771  7.49272771
  7.68840098  7.68840098  7.76755976  7.76755976  7.85530291  8.15292737
  8.17511936  8.17511936  8.22270664  8.22270664  8.362175    8.62573719
  8.62573719  8.92608374  8.92608374  8.98297113  8.98297113  9.37306738
  9.43193915  9.43193915  9.55703238  9.55703238 10.13759111 10.17957859
 10.17957859 10.3611904  10.3611904  10.80124992 11.54007971 11.54007971
 12.27739591 12.9731311  12.9731311  14.31106393 18.88410327 20.43991044]
E1 = -49.003561508880615  E_coul = 20.864301094161966
cycle= 9 E= -15.7816319236882  delta_E= -1.12e-11  |g|= 6.6e-07  |ddm|= 1.99e-05
    CPU time for cycle= 9     57.65 sec, wall time      0.45 sec
  HOMO = -0.498144208210833  LUMO = 0.10086606905363
  mo_energy =
[-1.24334671 -0.81697704 -0.58086749 -0.49814421 -0.49814421  0.10086607
  0.15341777  0.15341777  0.18798485  0.35745982  0.35773122  0.35773122
  0.42247063  0.4912438   0.53325416  0.53325416  0.62357128  0.62357128
  0.66718519  0.66718519  0.68736794  0.86915828  1.07127628  1.09887695
  1.09887695  1.10504301  1.10504301  1.24726958  1.27714241  1.39646891
  1.39646891  1.48800131  1.59811086  1.59811086  1.77610104  1.77610104
  1.91103546  1.91103546  1.9391814   1.9391814   2.01518732  2.12662837
  2.12662837  2.24236117  2.32904625  2.32904625  2.40884156  2.40884156
  2.46552124  2.57024893  2.61239312  2.61239312  2.81425338  2.84459694
  2.84459694  2.92941176  2.92941176  3.17125341  3.2957776   3.2957776
  3.45112441  3.45112441  3.59600612  3.59600612  3.73119356  4.04317342
  4.04317342  4.05914081  4.43977931  4.43977931  4.77808962  5.03702992
  5.14883554  5.14883554  5.18901555  5.18901555  5.60971413  5.60971413
  5.64015181  5.64015181  5.826883    5.826883    5.94490169  5.94490169
  6.02686455  6.11585223  6.11585223  6.32650017  6.33249954  6.33249954
  6.39097235  6.39097235  6.77289955  6.77289955  6.91567294  6.91567294
  7.04255893  7.23219294  7.23219294  7.36402677  7.49272751  7.49272751
  7.68840083  7.68840083  7.76755962  7.76755962  7.85530271  8.15292714
  8.17511914  8.17511914  8.22270648  8.22270648  8.36217472  8.62573689
  8.62573689  8.92608341  8.92608341  8.98297085  8.98297085  9.37306713
  9.43193884  9.43193884  9.55703222  9.55703222 10.13759082 10.1795783
 10.1795783  10.36119003 10.36119003 10.80124964 11.54007943 11.54007943
 12.27739559 12.97313079 12.97313079 14.31106363 18.88410276 20.4399101 ]
E1 = -49.00356203269265  E_coul = 20.86430161797379
Extra cycle  E= -15.7816319236884  delta_E= -2.1e-13  |g|= 2.53e-07  |ddm|= 2.22e-06
    CPU time for scf_cycle    707.06 sec, wall time      5.87 sec
    CPU time for SCF    707.49 sec, wall time      5.87 sec
converged SCF energy = -15.7816319236884
