#INFO: **** input file is /home/nkousuke/lustre/toBeSync/turboRVB/05turbo-genius-development/turbogenius_paper/04data/sanity_checks/03pyscf_HF_turbo_VMC_via_trexio/00open_boundary/results/BeH/pyscf-HF-workflow/run.py ****

from pyscf_wrapper import Pyscf_wrapper

# input variables
pyscf_chkfile="pyscf.chk"
structure_file="BeH.xyz"

# input variables
omp_num_threads=128
charge=0
spin=1
basis="ccecp-ccpvqz"
ecp="ccecp"
scf_method="HF"
dft_xc="NA"
solver_newton=False
MP2_flag=False
CCSD_flag=False
pyscf_output="out.pyscf"
twist_average=False
exp_to_discard=0.0
kpt=[0.0, 0.0, 0.0]
kpt_grid=[1, 1, 1]
smearing_method="fermi"
smearing_sigma=0.0

pyscf_calc=Pyscf_wrapper(
                        structure_file=structure_file,
                        chkfile=pyscf_chkfile,
                        )

pyscf_calc.run_pyscf(
                  omp_num_threads=omp_num_threads,
                  charge=charge,
                  spin=spin,
                  basis=basis,
                  ecp=ecp,
                  scf_method=scf_method,
                  dft_xc=dft_xc,
                  solver_newton=solver_newton,
                  MP2_flag=MP2_flag,
                  CCSD_flag=CCSD_flag,
                  pyscf_output=pyscf_output,
                  twist_average=twist_average,
                  exp_to_discard=exp_to_discard,
                  kpt=kpt,
                  kpt_grid=kpt_grid,
                  smearing_method=smearing_method,
                  smearing_sigma=smearing_sigma
                  )
                #INFO: ******************** input file end ********************


System: uname_result(system='Linux', node='spcc-238', release='5.4.0-66-generic', version='#74-Ubuntu SMP Wed Jan 27 22:54:38 UTC 2021', machine='x86_64', processor='x86_64')  Threads 128
Python 3.7.3 (default, Mar 27 2019, 22:11:17) 
[GCC 7.3.0]
numpy 1.20.1  scipy 1.7.3
Date: Mon Dec 19 18:07:35 2022
PySCF version 2.0.1
PySCF path  /home/nkousuke/application/anaconda3/lib/python3.7/site-packages/pyscf

[CONFIG] conf_file /home/nkousuke/.pyscf_conf.py
[INPUT] verbose = 5
[INPUT] max_memory = 506280.69140625 
[INPUT] num. atoms = 2
[INPUT] num. electrons = 3
[INPUT] charge = 0
[INPUT] spin (= nelec alpha-beta = 2S) = 1
[INPUT] symmetry False subgroup None
[INPUT] Mole.unit = A
[INPUT]  1 Be     0.000000000000   0.000000000000   0.268280000000 AA    0.000000000000   0.000000000000   0.506975724698 Bohr
[INPUT]  2 H      0.000000000000   0.000000000000  -1.073120000000 AA    0.000000000000   0.000000000000  -2.027902898793 Bohr
[INPUT] ---------------- BASIS SET ---------------- 
[INPUT] l, kappa, [nprim/nctr], expnt,             c_1 c_2 ...
[INPUT] Be
[INPUT] 0    0    [9    /1   ]  15.965877         0.00069
                                7.367361          -0.000377
                                3.399626          0.024069
                                1.568738          -0.111989
                                0.723885          -0.076442
                                0.334032          0.135744
                                0.154137          0.418515
                                0.071126          0.462924
                                0.032821          0.128266
[INPUT] 0    0    [1    /1   ]  1.332887             1
[INPUT] 0    0    [1    /1   ]  0.245509             1
[INPUT] 0    0    [1    /1   ]  0.045221             1
[INPUT] 1    0    [9    /1   ]  16.554942         0.000341
                                7.52605           0.003228
                                3.421421          0.01766
                                1.555414          0.038664
                                0.707108          0.098639
                                0.321458          0.231259
                                0.146138          0.387109
                                0.066436          0.339448
                                0.030203          0.089102
[INPUT] 1    0    [1    /1   ]  2.453623             1
[INPUT] 1    0    [1    /1   ]  0.683999             1
[INPUT] 1    0    [1    /1   ]  0.190679             1
[INPUT] 2    0    [1    /1   ]  0.984098             1
[INPUT] 2    0    [1    /1   ]  0.40851              1
[INPUT] 2    0    [1    /1   ]  0.169577             1
[INPUT] 3    0    [1    /1   ]  0.477034             1
[INPUT] 3    0    [1    /1   ]  0.237971             1
[INPUT] 4    0    [1    /1   ]  0.422045             1
[INPUT] H
[INPUT] 0    0    [8    /1   ]  23.843185         0.0041149
                                10.212443         0.0104644
                                4.374164          0.0280111
                                1.873529          0.0758862
                                0.802465          0.1821062
                                0.343709          0.3485214
                                0.147217          0.3782313
                                0.063055          0.1164241
[INPUT] 0    0    [1    /1   ]  0.081856             1
[INPUT] 0    0    [1    /1   ]  0.233254             1
[INPUT] 0    0    [1    /1   ]  0.664673             1
[INPUT] 1    0    [1    /1   ]  0.284469             1
[INPUT] 1    0    [1    /1   ]  0.847159             1
[INPUT] 1    0    [1    /1   ]  2.522868             1
[INPUT] 2    0    [1    /1   ]  0.665279             1
[INPUT] 2    0    [1    /1   ]  2.048739             1
[INPUT] 3    0    [1    /1   ]  1.42146              1

nuclear repulsion = 0.788992412285672
number of shells = 24
number of NR pGTOs = 123
number of NR cGTOs = 84
basis = ccecp-ccpvqz
ecp = ccecp
CPU time:         4.51


******** <class 'pyscf.scf.rohf.ROHF'> ********
method = ROHF-RHF
initial guess = minao
damping factor = 0
level_shift factor = 0
DIIS = <class 'pyscf.scf.diis.CDIIS'>
diis_start_cycle = 1
diis_space = 8
SCF conv_tol = 1e-09
SCF conv_tol_grad = None
SCF max_cycles = 200
direct_scf = True
direct_scf_tol = 1e-13
chkfile to save SCF result = pyscf.chk
max_memory 506280 MB (current use 107 MB)
num. doubly occ = 1  num. singly occ = 1
Set gradient conv threshold to 3.16228e-05
E1 = -3.240021321026566  Ecoul = 1.0342265370250796
init E= -1.41680237171581
cond(S) = 17431.77778552328
    CPU time for initialize scf     96.32 sec, wall time      0.89 sec
  HOMO = -0.10439989211326  LUMO = 0.0456001451479972
                  Roothaan           | alpha              | beta
  Highest 2-occ = -0.515109942380446 | -0.515109942380447 | -0.515109942380447
  Lowest 0-occ =  0.0456001451479972 | 0.0456001451479983 | 0.0456001451479983
  1-occ =          -0.10439989211326 | -0.104399892113259 | -0.104399892113259
  Roothaan mo_energy =
[-0.51510994 -0.10439989  0.04560015  0.04560015  0.13112469  0.18809108
  0.24619525  0.30094205  0.30094205  0.42707032  0.42707032  0.44831232
  0.44831232  0.45794907  0.64129463  0.78419251  0.78419251  0.81126709
  0.89002446  0.89002446  0.89761379  0.89761379  0.97298232  1.10493521
  1.10493521  1.20518065  1.31082887  1.31082887  1.40382568  1.40382568
  1.43215746  1.43215746  1.4434566   1.5460606   1.85193147  2.04888958
  2.04888958  2.15583568  2.15583568  2.15812792  2.15812792  2.16395743
  2.16395743  2.43098234  2.43098234  2.45383647  2.45383647  2.50516016
  2.51383623  2.51383623  2.51502459  2.76883111  2.76883111  2.8474831
  2.8474831   2.96921802  3.47851143  3.51100098  3.51100098  3.87688254
  3.87688254  3.96131188  3.96131188  4.20085753  5.0643269   5.36191728
  5.36191728  5.78180004  6.22989144  6.22989144  6.59316205  6.59316205
  6.6143208   6.82422204  6.82422204  7.30796114  8.36994212  8.36994212
  8.590113    8.590113    9.07007484  9.07007484  9.20107467  9.51850765]
E1 = -3.3366385893726407  Ecoul = 1.0353741103864686
cycle= 1 E= -1.5122720667005  delta_E= -0.0955  |g|= 0.0947  |ddm|= 1.34
    CPU time for cycle= 1     81.73 sec, wall time      0.67 sec
  HOMO = -0.138470082552937  LUMO = 0.0499261479053218
                  Roothaan           | alpha              | beta
  Highest 2-occ = -0.490903590156811 | -0.535364056875127 | -0.447270680353222
  Lowest 0-occ =  0.0499261479053218 |  0.036128479209699 | 0.0637238166009448
  1-occ =         -0.138470082552937 | -0.294822267501885 | 0.0330709547404192
  Roothaan mo_energy =
[-0.49090359 -0.13847008  0.04992615  0.04992615  0.13113856  0.19555812
  0.25070037  0.3001326   0.3001326   0.42575237  0.42575237  0.4409534
  0.4409534   0.46782563  0.65104633  0.79371562  0.79371562  0.81509274
  0.88514955  0.88514955  0.88674509  0.88674509  0.97019073  1.10227183
  1.10227183  1.22074706  1.30794598  1.30794598  1.40669933  1.40669933
  1.42070349  1.42070349  1.44828049  1.57130802  1.85963398  2.06182267
  2.06182267  2.14527045  2.14527045  2.15074031  2.15074031  2.17679528
  2.17679528  2.42542376  2.42542376  2.43729669  2.43729669  2.50364533
  2.50364533  2.50728777  2.5194261   2.78826206  2.78826206  2.88005885
  2.88005885  2.99993647  3.50707941  3.53568708  3.53568708  3.86524616
  3.86524616  3.96502368  3.96502368  4.20948423  5.06721221  5.36387766
  5.36387766  5.8231844   6.28501851  6.28501851  6.65152357  6.65152357
  6.66782037  6.8851304   6.8851304   7.36146036  8.43199817  8.43199817
  8.64947267  8.64947267  9.13580288  9.13580288  9.26205679  9.58198536]
E1 = -3.3992008580567887  Ecoul = 1.0736662808420614
cycle= 2 E= -1.53654216492906  delta_E= -0.0243  |g|= 0.0492  |ddm|= 0.565
    CPU time for cycle= 2    126.61 sec, wall time      1.00 sec
  HOMO = -0.112612007358926  LUMO = 0.0648412974162128
                  Roothaan           | alpha              | beta
  Highest 2-occ = -0.471207525753898 | -0.497084296054667 | -0.450185165613023
  Lowest 0-occ =  0.0648412974162128 | 0.0449260098116792 | 0.0753847025982282
  1-occ =         -0.112612007358926 | -0.304552937857384 | 0.0709861078001255
  Roothaan mo_energy =
[-0.47120753 -0.11261201  0.0648413   0.0648413   0.13457626  0.20600819
  0.25634895  0.31779555  0.31779555  0.44082683  0.44082683  0.45028024
  0.45028024  0.48518069  0.67298606  0.8157578   0.8157578   0.83625487
  0.89190127  0.89190127  0.8997656   0.8997656   0.9849693   1.11590951
  1.11590951  1.25031673  1.33618119  1.33618119  1.43542345  1.43542345
  1.43994489  1.43994489  1.47406634  1.60667559  1.88692408  2.09375799
  2.09375799  2.15649127  2.15649127  2.16983675  2.16983675  2.21637718
  2.21637718  2.45120482  2.45120482  2.45530302  2.45530302  2.52389307
  2.52389307  2.52807412  2.55459181  2.82355456  2.82355456  2.92303797
  2.92303797  3.05041039  3.55137405  3.58013877  3.58013877  3.8956769
  3.8956769   4.00427609  4.00427609  4.25236518  5.11217768  5.40780538
  5.40780538  5.88897264  6.3486206   6.3486206   6.71879345  6.71879345
  6.73894063  6.95717213  6.95717213  7.43197644  8.5052271   8.5052271
  8.7223996   8.7223996   9.21327638  9.21327638  9.33460235  9.66190601]
E1 = -3.406070191249384  Ecoul = 1.0729752649640887
cycle= 3 E= -1.54410251399962  delta_E= -0.00756  |g|= 0.00934  |ddm|= 0.321
    CPU time for cycle= 3     48.10 sec, wall time      0.38 sec
  HOMO = -0.111421536439438  LUMO = 0.0639432579737438
                  Roothaan           | alpha              | beta
  Highest 2-occ = -0.473181123422282 | -0.482477565018196 | -0.463621223456713
  Lowest 0-occ =  0.0639432579737438 | 0.0484885235300729 | 0.0792405623568707
  1-occ =         -0.111421536439438 | -0.314076031727822 | 0.0915481724437799
  Roothaan mo_energy =
[-0.47318112 -0.11142154  0.06394326  0.06394326  0.13125386  0.20909228
  0.25209273  0.31575473  0.31575473  0.4382374   0.4382374   0.44805855
  0.44805855  0.47956547  0.66957676  0.81211913  0.81211913  0.83426135
  0.88897484  0.88897484  0.89773941  0.89773941  0.98437391  1.11421847
  1.11421847  1.24572461  1.33283804  1.33283804  1.43181602  1.43181602
  1.43599618  1.43599618  1.47368721  1.59989606  1.88485727  2.08855559
  2.08855559  2.15199684  2.15199684  2.16659521  2.16659521  2.20869215
  2.20869215  2.44888779  2.44888779  2.45052902  2.45052902  2.52710158
  2.52710158  2.53196668  2.54756987  2.81652938  2.81652938  2.91388861
  2.91388861  3.0410242   3.54375702  3.57121905  3.57121905  3.89089742
  3.89089742  4.00097867  4.00097867  4.24808317  5.11001585  5.40262306
  5.40262306  5.87680962  6.33498013  6.33498013  6.70444316  6.70444316
  6.72511935  6.94229938  6.94229938  7.4171153   8.48820755  8.48820755
  8.70473412  8.70473412  9.19542847  9.19542847  9.31786462  9.64410381]
E1 = -3.4058606720686084  Ecoul = 1.0726688395459456
cycle= 4 E= -1.54419942023699  delta_E= -9.69e-05  |g|= 0.00219  |ddm|= 0.0797
    CPU time for cycle= 4    131.04 sec, wall time      1.04 sec
  HOMO = -0.111347805186328  LUMO = 0.0638130042564908
                  Roothaan           | alpha              | beta
  Highest 2-occ = -0.472719367796464 | -0.481638362681445 |  -0.46390911322738
  Lowest 0-occ =  0.0638130042564908 | 0.0484565499991022 | 0.0792625361906725
  1-occ =         -0.111347805186328 | -0.314977894214209 | 0.0927039629534296
  Roothaan mo_energy =
[-0.47271937 -0.11134781  0.063813    0.063813    0.13148868  0.20876084
  0.25252847  0.31551525  0.31551525  0.43827809  0.43827809  0.44771373
  0.44771373  0.4792975   0.66987713  0.8125411   0.8125411   0.83420555
  0.88850779  0.88850779  0.89759229  0.89759229  0.98423709  1.1142823
  1.1142823   1.24618576  1.33241619  1.33241619  1.43172209  1.43172209
  1.4353922   1.4353922   1.47381772  1.60048703  1.88504303  2.08872289
  2.08872289  2.15126434  2.15126434  2.16620156  2.16620156  2.2089978
  2.2089978   2.44863979  2.44863979  2.44977845  2.44977845  2.52729162
  2.52729162  2.53226334  2.54769449  2.81715006  2.81715006  2.91503249
  2.91503249  3.04155855  3.54448749  3.57147715  3.57147715  3.89013616
  3.89013616  4.00088502  4.00088502  4.24804418  5.10992766  5.40211237
  5.40211237  5.8776725   6.33639067  6.33639067  6.70559071  6.70559071
  6.72574235  6.9431877   6.9431877   7.41828953  8.49005291  8.49005291
  8.70678159  8.70678159  9.19701431  9.19701431  9.31959382  9.64542986]
E1 = -3.4058533824612818  Ecoul = 1.0726559646745115
cycle= 5 E= -1.5442050055011  delta_E= -5.59e-06  |g|= 0.000358  |ddm|= 0.0159
    CPU time for cycle= 5     86.66 sec, wall time      0.69 sec
  HOMO = -0.111073430633815  LUMO = 0.0639372554843467
                  Roothaan           | alpha              | beta
  Highest 2-occ = -0.472657125890205 | -0.481415380023423 | -0.463898675238756
  Lowest 0-occ =  0.0639372554843467 | 0.0485617854787792 | 0.0792999137229743
  1-occ =         -0.111073430633815 | -0.315227474461889 | 0.0930461138461661
  Roothaan mo_energy =
[-0.47265713 -0.11107343  0.06393726  0.06393726  0.13134852  0.20885363
  0.25255032  0.31562868  0.31562868  0.43836756  0.43836756  0.44780171
  0.44780171  0.47945146  0.66997862  0.81262206  0.81262206  0.83432524
  0.88858155  0.88858155  0.8976886   0.8976886   0.98437689  1.11439281
  1.11439281  1.246338    1.3326429   1.3326429   1.43191995  1.43191995
  1.4355713   1.4355713   1.47402894  1.60056584  1.8852211   2.08885872
  2.08885872  2.15140115  2.15140115  2.16636397  2.16636397  2.20911795
  2.20911795  2.44887146  2.44887146  2.44996758  2.44996758  2.52757887
  2.52757887  2.53254975  2.54782566  2.81725175  2.81725175  2.91510468
  2.91510468  3.04170151  3.54462427  3.57160988  3.57160988  3.89042062
  3.89042062  4.00117573  4.00117573  4.24832493  5.1102958   5.40243299
  5.40243299  5.8778272   6.33644445  6.33644445  6.70565345  6.70565345
  6.72586543  6.94327413  6.94327413  7.41837975  8.49007486  8.49007486
  8.70678803  8.70678803  9.19704676  9.19704676  9.31962425  9.64549253]
E1 = -3.4058489755773484  Ecoul = 1.0726513371566975
cycle= 6 E= -1.54420522613498  delta_E= -2.21e-07  |g|= 6.68e-05  |ddm|= 0.0068
    CPU time for cycle= 6     51.25 sec, wall time      0.41 sec
  HOMO = -0.111113103142286  LUMO = 0.0639270736871567
                  Roothaan           | alpha              | beta
  Highest 2-occ =  -0.47262704240825 | -0.481358937128634 | -0.463903884899475
  Lowest 0-occ =  0.0639270736871567 | 0.0485488204923837 | 0.0793054908794078
  1-occ =         -0.111113103142286 | -0.315283481685669 | 0.0930693087023196
  Roothaan mo_energy =
[-0.47262704 -0.1111131   0.06392707  0.06392707  0.13137826  0.2088138
  0.25257568  0.31562115  0.31562115  0.43836078  0.43836078  0.44779248
  0.44779248  0.47944719  0.66998145  0.81263484  0.81263484  0.83431605
  0.88857262  0.88857262  0.89767817  0.89767817  0.98435762  1.11439046
  1.11439046  1.24635609  1.33262827  1.33262827  1.43190752  1.43190752
  1.43555652  1.43555652  1.47400623  1.60059212  1.88521037  2.08886228
  2.08886228  2.15138794  2.15138794  2.16634809  2.16634809  2.20913436
  2.20913436  2.44885038  2.44885038  2.44995241  2.44995241  2.52753846
  2.52753846  2.53250833  2.54783722  2.81728186  2.81728186  2.9151578
  2.9151578   3.04173044  3.54465505  3.57163179  3.57163179  3.89040204
  3.89040204  4.00116005  4.00116005  4.24831426  5.11027874  5.4024199
  5.4024199   5.8778627   6.33651072  6.33651072  6.70571159  6.70571159
  6.72590253  6.9433237   6.9433237   7.41843402  8.49015489  8.49015489
  8.70687391  8.70687391  9.19711836  9.19711836  9.31970066  9.64555361]
E1 = -3.40585214858119  Ecoul = 1.072654503048902
cycle= 7 E= -1.54420523324662  delta_E= -7.11e-09  |g|= 1.02e-05  |ddm|= 0.00116
    CPU time for cycle= 7    109.14 sec, wall time      0.86 sec
  HOMO = -0.111109262087863  LUMO = 0.0639294528273957
                  Roothaan           | alpha              | beta
  Highest 2-occ = -0.472625339581202 | -0.481353026317534 | -0.463899145557313
  Lowest 0-occ =  0.0639294528273957 | 0.0485513968895231 | 0.0793074118750871
  1-occ =         -0.111109262087863 | -0.315290970655311 | 0.0930733935744822
  Roothaan mo_energy =
[-0.47262534 -0.11110926  0.06392945  0.06392945  0.13137485  0.20881337
  0.25257867  0.3156232   0.3156232   0.43836253  0.43836253  0.44779445
  0.44779445  0.47945208  0.66998359  0.81263724  0.81263724  0.83431858
  0.88857462  0.88857462  0.89768014  0.89768014  0.98436034  1.11439319
  1.11439319  1.24635997  1.33263252  1.33263252  1.43191095  1.43191095
  1.43556027  1.43556027  1.47400931  1.60059441  1.88521324  2.08886505
  2.08886505  2.15139136  2.15139136  2.16635134  2.16635134  2.2091371
  2.2091371   2.44885444  2.44885444  2.44995652  2.44995652  2.52754269
  2.52754269  2.53251243  2.54784034  2.81728516  2.81728516  2.91516136
  2.91516136  3.04173401  3.54465884  3.57163506  3.57163506  3.89040752
  3.89040752  4.00116497  4.00116497  4.24831916  5.11028534  5.40242594
  5.40242594  5.87786588  6.33651297  6.33651297  6.70571356  6.70571356
  6.72590489  6.94332555  6.94332555  7.41843654  8.49015668  8.49015668
  8.70687597  8.70687597  9.19711977  9.19711977  9.31970289  9.64555524]
E1 = -3.4058514074505313  Ecoul = 1.072653761770213
cycle= 8 E= -1.54420523339465  delta_E= -1.48e-10  |g|= 1.33e-06  |ddm|= 0.000219
    CPU time for cycle= 8     96.01 sec, wall time      0.76 sec
  HOMO = -0.11110978052549  LUMO = 0.0639290222148506
                  Roothaan           | alpha              | beta
  Highest 2-occ = -0.472625658836528 | -0.481352233990383 | -0.463899134557112
  Lowest 0-occ =  0.0639290222148506 | 0.0485507695899689 | 0.0793072748397274
  1-occ =          -0.11110978052549 | -0.315292515364046 | 0.0930731229672297
  Roothaan mo_energy =
[-0.47262566 -0.11110978  0.06392902  0.06392902  0.13137547  0.20881311
  0.25257826  0.3156229   0.3156229   0.43836221  0.43836221  0.44779412
  0.44779412  0.47945147  0.66998322  0.8126369   0.8126369   0.83431818
  0.88857431  0.88857431  0.89767978  0.89767978  0.98435986  1.11439284
  1.11439284  1.24635949  1.33263188  1.33263188  1.43191034  1.43191034
  1.4355597   1.4355597   1.47400873  1.600594    1.88521273  2.08886452
  2.08886452  2.15139084  2.15139084  2.16635079  2.16635079  2.20913656
  2.20913656  2.44885379  2.44885379  2.44995589  2.44995589  2.52754209
  2.52754209  2.53251185  2.54783978  2.81728467  2.81728467  2.9151609
  2.9151609   3.04173342  3.54465829  3.57163446  3.57163446  3.89040671
  3.89040671  4.00116423  4.00116423  4.24831842  5.11028453  5.40242508
  5.40242508  5.87786528  6.33651247  6.33651247  6.70571302  6.70571302
  6.72590425  6.94332497  6.94332497  7.41843599  8.49015622  8.49015622
  8.70687553  8.70687553  9.19711928  9.19711928  9.31970242  9.64555471]
E1 = -3.405851405609787  Ecoul = 1.0726537599265429
Extra cycle  E= -1.54420523339757  delta_E= -2.93e-12  |g|= 3.79e-07  |ddm|= 3.12e-05
    CPU time for scf_cycle    850.42 sec, wall time      6.89 sec
    CPU time for SCF    850.46 sec, wall time      6.89 sec
converged SCF energy = -1.54420523339757
