#INFO: **** input file is /home/nkousuke/lustre/toBeSync/turboRVB/05turbo-genius-development/turbogenius_paper/04data/sanity_checks/03pyscf_HF_turbo_VMC_via_trexio/00open_boundary/results/Si2H6/pyscf-HF-workflow/run.py ****

from pyscf_wrapper import Pyscf_wrapper

# input variables
pyscf_chkfile="pyscf.chk"
structure_file="Si2H6.xyz"

# input variables
omp_num_threads=128
charge=0
spin=0
basis="ccecp-ccpvqz"
ecp="ccecp"
scf_method="HF"
dft_xc="NA"
solver_newton=False
MP2_flag=False
CCSD_flag=False
pyscf_output="out.pyscf"
twist_average=False
exp_to_discard=0.0
kpt=[0.0, 0.0, 0.0]
kpt_grid=[1, 1, 1]
smearing_method="fermi"
smearing_sigma=0.0

pyscf_calc=Pyscf_wrapper(
                        structure_file=structure_file,
                        chkfile=pyscf_chkfile,
                        )

pyscf_calc.run_pyscf(
                  omp_num_threads=omp_num_threads,
                  charge=charge,
                  spin=spin,
                  basis=basis,
                  ecp=ecp,
                  scf_method=scf_method,
                  dft_xc=dft_xc,
                  solver_newton=solver_newton,
                  MP2_flag=MP2_flag,
                  CCSD_flag=CCSD_flag,
                  pyscf_output=pyscf_output,
                  twist_average=twist_average,
                  exp_to_discard=exp_to_discard,
                  kpt=kpt,
                  kpt_grid=kpt_grid,
                  smearing_method=smearing_method,
                  smearing_sigma=smearing_sigma
                  )
                #INFO: ******************** input file end ********************


System: uname_result(system='Linux', node='spcc-105', release='5.4.0-66-generic', version='#74-Ubuntu SMP Wed Jan 27 22:54:38 UTC 2021', machine='x86_64', processor='x86_64')  Threads 128
Python 3.7.3 (default, Mar 27 2019, 22:11:17) 
[GCC 7.3.0]
numpy 1.20.1  scipy 1.7.3
Date: Mon Dec 19 18:09:09 2022
PySCF version 2.0.1
PySCF path  /home/nkousuke/application/anaconda3/lib/python3.7/site-packages/pyscf

[CONFIG] conf_file /home/nkousuke/.pyscf_conf.py
[INPUT] verbose = 5
[INPUT] max_memory = 507593.46875 
[INPUT] num. atoms = 8
[INPUT] num. electrons = 14
[INPUT] charge = 0
[INPUT] spin (= nelec alpha-beta = 2S) = 0
[INPUT] symmetry False subgroup None
[INPUT] Mole.unit = A
[INPUT]  1 Si     0.000000000000   0.000000000000   1.170305000000 AA    0.000000000000   0.000000000000   2.211555932209 Bohr
[INPUT]  2 Si     0.000000000000   0.000000000000  -1.170305000000 AA    0.000000000000   0.000000000000  -2.211555932209 Bohr
[INPUT]  3 H      0.000000000000   1.388109000000   1.685486000000 AA    0.000000000000   2.623145841044   3.185106926789 Bohr
[INPUT]  4 H     -1.202138000000  -0.694055000000   1.685486000000 AA   -2.271711583932  -1.311573865385   3.185106926789 Bohr
[INPUT]  5 H      1.202138000000  -0.694055000000   1.685486000000 AA    2.271711583932  -1.311573865385   3.185106926789 Bohr
[INPUT]  6 H      0.000000000000  -1.388109000000  -1.685486000000 AA    0.000000000000  -2.623145841044  -3.185106926789 Bohr
[INPUT]  7 H     -1.202138000000   0.694055000000  -1.685486000000 AA   -2.271711583932   1.311573865385  -3.185106926789 Bohr
[INPUT]  8 H      1.202138000000   0.694055000000  -1.685486000000 AA    2.271711583932   1.311573865385  -3.185106926789 Bohr
[INPUT] ---------------- BASIS SET ---------------- 
[INPUT] l, kappa, [nprim/nctr], expnt,             c_1 c_2 ...
[INPUT] Si
[INPUT] 0    0    [10   /1   ]  9.998274          0.002894
                                5.517644          -0.014523
                                3.044965          0.077634
                                1.680393          -0.224022
                                0.927341          -0.14908
                                0.511762          0.085944
                                0.282421          0.355394
                                0.155857          0.445219
                                0.086011          0.26723
                                0.047466          0.060787
[INPUT] 0    0    [1    /1   ]  0.488504             1
[INPUT] 0    0    [1    /1   ]  0.199457             1
[INPUT] 0    0    [1    /1   ]  0.081439             1
[INPUT] 1    0    [10   /1   ]  5.027868          -0.003242
                                2.867751          0.010649
                                1.635683          -0.049761
                                0.932947          -1.7e-05
                                0.532126          0.10606
                                0.303509          0.236202
                                0.173113          0.310665
                                0.098739          0.294696
                                0.056318          0.153898
                                0.032122          0.042337
[INPUT] 1    0    [1    /1   ]  1.22579              1
[INPUT] 1    0    [1    /1   ]  0.501364             1
[INPUT] 1    0    [1    /1   ]  0.205064             1
[INPUT] 2    0    [1    /1   ]  0.997003             1
[INPUT] 2    0    [1    /1   ]  0.365942             1
[INPUT] 2    0    [1    /1   ]  0.134316             1
[INPUT] 3    0    [1    /1   ]  0.549116             1
[INPUT] 3    0    [1    /1   ]  0.214998             1
[INPUT] 4    0    [1    /1   ]  0.459547             1
[INPUT] H
[INPUT] 0    0    [8    /1   ]  23.843185         0.0041149
                                10.212443         0.0104644
                                4.374164          0.0280111
                                1.873529          0.0758862
                                0.802465          0.1821062
                                0.343709          0.3485214
                                0.147217          0.3782313
                                0.063055          0.1164241
[INPUT] 0    0    [1    /1   ]  0.081856             1
[INPUT] 0    0    [1    /1   ]  0.233254             1
[INPUT] 0    0    [1    /1   ]  0.664673             1
[INPUT] 1    0    [1    /1   ]  0.284469             1
[INPUT] 1    0    [1    /1   ]  0.847159             1
[INPUT] 1    0    [1    /1   ]  2.522868             1
[INPUT] 2    0    [1    /1   ]  0.665279             1
[INPUT] 2    0    [1    /1   ]  2.048739             1
[INPUT] 3    0    [1    /1   ]  1.42146              1

nuclear repulsion = 18.7497564530581
number of shells = 88
number of NR pGTOs = 402
number of NR cGTOs = 288
basis = ccecp-ccpvqz
ecp = ccecp
CPU time:         5.57


******** <class 'pyscf.scf.hf.RHF'> ********
method = RHF
initial guess = minao
damping factor = 0
level_shift factor = 0
DIIS = <class 'pyscf.scf.diis.CDIIS'>
diis_start_cycle = 1
diis_space = 8
SCF conv_tol = 1e-09
SCF conv_tol_grad = None
SCF max_cycles = 200
direct_scf = True
direct_scf_tol = 1e-13
chkfile to save SCF result = pyscf.chk
max_memory 507593 MB (current use 106 MB)
Set gradient conv threshold to 3.16228e-05
E1 = -50.73018226787879  E_coul = 21.77430472314487
init E= -10.2061210916759
cond(S) = 36163.99963180559
    CPU time for initialize scf    459.12 sec, wall time      3.83 sec
  HOMO = -0.325803480706319  LUMO = 0.0566420765271217
  mo_energy =
[-0.97127864 -0.78356681 -0.45492342 -0.4549233  -0.39661493 -0.3966148
 -0.32580348  0.05664208  0.07021076  0.07021083  0.07324913  0.12268885
  0.12268893  0.13632266  0.18321619  0.19735544  0.19735546  0.21433087
  0.22889431  0.22889433  0.25910049  0.25910051  0.33779646  0.34916909
  0.34916912  0.35558585  0.38036285  0.38036294  0.3821071   0.42399049
  0.43386014  0.43386017  0.49498838  0.49498849  0.51435679  0.57827562
  0.61887305  0.61887307  0.62960501  0.65549035  0.73978294  0.75065088
  0.7506509   0.77353922  0.7735393   0.78331507  0.80739163  0.80739163
  0.82549408  0.82549409  0.88952649  0.88952652  0.90157951  0.94239879
  0.96203433  0.96474979  0.98768875  0.98768876  0.99327384  1.00493547
  1.00493547  1.03145127  1.05012715  1.05012721  1.07986184  1.07986185
  1.0894911   1.08949115  1.17245605  1.17245608  1.18093     1.20524431
  1.20886745  1.29754578  1.29754581  1.33640285  1.36391141  1.36391143
  1.38061579  1.38061595  1.38464089  1.53611152  1.5361116   1.53856303
  1.54069849  1.54069856  1.67092986  1.69846446  1.69846449  1.70630594
  1.706306    1.78154942  1.9043074   1.90430748  1.91975993  1.98163932
  2.01303405  2.0401569   2.04015701  2.11108341  2.11108358  2.14669961
  2.17170326  2.17170333  2.21013288  2.21220461  2.25738624  2.29024752
  2.2994789   2.29947894  2.33020899  2.3302091   2.38129114  2.39001011
  2.39001012  2.41679601  2.43925847  2.44707772  2.47466461  2.47466483
  2.48434815  2.48434832  2.50166711  2.50614804  2.52293679  2.52293691
  2.54501716  2.54501719  2.59118086  2.59497071  2.59497084  2.60447012
  2.70995996  2.72130265  2.72130272  2.72837477  2.77435059  2.79080342
  2.79080346  2.80385937  2.80385957  2.8305793   2.83057936  2.85918028
  2.85918044  2.86673993  2.88597727  2.8859774   2.9453687   2.96613285
  2.99104633  2.99104649  3.04095856  3.06716561  3.06716571  3.19700572
  3.19700583  3.28677124  3.36475625  3.36475646  3.41176825  3.41176826
  3.41734661  3.46131123  3.46131139  3.54668255  3.62573117  3.62573163
  3.63502969  3.63502998  3.68996933  3.709056    3.70905616  3.77322638
  3.77322665  3.77348274  3.77727714  3.77727731  3.83677311  3.83677325
  3.92451911  3.92784366  3.9411326   4.14120433  5.42283882  5.42283905
  5.45260167  5.45468591  5.45468619  5.64000717  6.11489544  6.11663444
  6.15006627  6.15006636  6.15240827  6.15240829  6.19214078  6.19214081
  6.19529285  6.1952929   6.25507347  6.25843595  6.35190634  6.40480268
  6.40631477  6.42901219  6.42989891  6.42989895  6.43862366  6.43862382
  6.47747369  6.53654273  6.54896722  6.54896726  6.59646712  6.59646721
  6.67091519  6.67091609  6.68176833  6.68176916  6.76081658  6.76081709
  6.76734676  6.79336564  6.83615676  6.83615698  6.92956845  6.92956867
  7.02860089  7.02860107  7.0560586   7.05758381  7.05758392  7.0594446
  7.06343815  7.06343823  7.11723514  7.15868547  8.20763336  8.2553939
  8.25959598  8.25959614  8.28300591  8.2830061   8.36252768  8.36252771
  8.41393603  8.42345593  8.44234194  8.44234195  8.54372573  8.5437258
  8.54527787  8.55078485  8.57120517  8.62388279  8.62388301  8.65540689
  8.65540692  8.67121179  8.68659214  8.68659227  8.88173785  8.88173815
  8.88298182  8.94623427  8.95132715  8.96035263  8.96035268  8.98296191
  8.98296201  8.99181132  8.99181163  9.11165416  9.13941637  9.17359683
  9.17359696  9.19188185  9.19188201  9.23151652  9.28421642  9.31147449
  9.82104275  9.82104312  9.82524783  9.82524824 11.27998704 11.31014312]
E1 = -51.75667787828539  E_coul = 22.01849596110582
cycle= 1 E= -10.9884254641215  delta_E= -0.782  |g|= 0.221  |ddm|= 3.29
    CPU time for cycle= 1     42.00 sec, wall time      0.42 sec
  HOMO = -0.411416417424918  LUMO = 0.0869740418013227
  mo_energy =
[-0.78045984 -0.69891324 -0.51016895 -0.51016884 -0.47992554 -0.47992542
 -0.41141642  0.08697404  0.10072639  0.11487969  0.11487973  0.15014905
  0.15014911  0.17180094  0.19210408  0.20178677  0.20178679  0.23361082
  0.23361084  0.25166546  0.27256794  0.27256796  0.36047784  0.36702743
  0.36702746  0.38656678  0.39974549  0.39974557  0.41423672  0.4441706
  0.45141749  0.45141752  0.52003103  0.52003115  0.53965365  0.59935818
  0.63693401  0.63693403  0.64543958  0.67176897  0.75614138  0.76970312
  0.76970314  0.79472173  0.79472181  0.80178323  0.82598747  0.82598748
  0.83979476  0.83979477  0.91370064  0.91370068  0.91930142  0.95169215
  0.97416715  0.98686448  1.00875172  1.00875174  1.01470336  1.02241818
  1.02241819  1.05076162  1.06587858  1.06587865  1.09915128  1.09915128
  1.11047394  1.11047399  1.19393486  1.19393489  1.20293422  1.2182159
  1.23612756  1.31832166  1.31832168  1.36216265  1.38820559  1.38820562
  1.40988127  1.40988142  1.41810902  1.56205498  1.57158612  1.57158617
  1.57544695  1.57544704  1.69977821  1.72065153  1.72065155  1.72563933
  1.72563938  1.80809648  1.93965759  1.93965766  1.95939634  2.02031068
  2.04342144  2.0714318   2.07143191  2.14878525  2.14878542  2.17862823
  2.2031009   2.20310097  2.2400768   2.24531197  2.28698888  2.32403025
  2.32988672  2.32988676  2.3636334   2.36363352  2.4130138   2.42200784
  2.42200785  2.44197486  2.46688859  2.48315101  2.50719634  2.50719656
  2.51754006  2.51754023  2.53096263  2.53339194  2.55894725  2.55894736
  2.57484219  2.57484223  2.61857594  2.62425013  2.62425025  2.63234126
  2.74215426  2.75145907  2.75145914  2.7548257   2.80053039  2.82012122
  2.82012126  2.83263824  2.83263843  2.86084989  2.86084996  2.8897232
  2.88972335  2.89730108  2.9153031   2.91530323  2.98172121  2.9923386
  3.01955233  3.01955249  3.0688885   3.09559359  3.09559368  3.22638055
  3.22638066  3.3170558   3.39386593  3.39386615  3.44323033  3.44323036
  3.45352782  3.49056135  3.49056153  3.58005729  3.6608684   3.66086889
  3.67038214  3.67038246  3.72224736  3.74393697  3.74393711  3.80492193
  3.80492219  3.81222158  3.81368921  3.81368936  3.87240795  3.87240809
  3.9634571   3.96734495  3.97777242  4.18346911  5.46336561  5.46336582
  5.491218    5.49343568  5.49343594  5.67502411  6.16106597  6.16277296
  6.19628235  6.19628242  6.19915279  6.19915281  6.23793272  6.23793276
  6.24139771  6.24139776  6.30095102  6.30463839  6.39993342  6.45676777
  6.45785843  6.4775553   6.48173546  6.4817355   6.48915556  6.48915572
  6.53134073  6.59161552  6.6078812   6.60788124  6.65497097  6.65497107
  6.72651686  6.72651776  6.73885722  6.73885807  6.81353104  6.81353155
  6.826944    6.84942589  6.89125336  6.89125357  6.98746399  6.98746422
  7.08522944  7.08522964  7.10919714  7.11314758  7.1131477   7.11681245
  7.11681253  7.12195089  7.17832789  7.20946493  8.26148515  8.3071613
  8.31098949  8.31098967  8.33392931  8.33392951  8.41352465  8.41352469
  8.46408752  8.4747846   8.49235772  8.49235775  8.5929149   8.59291496
  8.59721587  8.60628754  8.61586383  8.67523749  8.67523772  8.70763371
  8.70763374  8.71846175  8.735533    8.73553314  8.9330676   8.93659235
  8.93659266  9.00292211  9.00380794  9.0138486   9.01384862  9.03379783
  9.03379794  9.04556021  9.0455606   9.15880689  9.19560223  9.22235717
  9.22235731  9.24028862  9.2402888   9.27979605  9.34633366  9.37427358
  9.88630982  9.88631023  9.89044155  9.89044199 11.32073128 11.35171694]
E1 = -51.942702597962935  E_coul = 22.1755866032127
cycle= 2 E= -11.0173595416922  delta_E= -0.0289  |g|= 0.0671  |ddm|= 0.55
    CPU time for cycle= 2     96.00 sec, wall time      0.75 sec
  HOMO = -0.398652215765672  LUMO = 0.0953846972238472
  mo_energy =
[-0.75638713 -0.67851282 -0.49749223 -0.49749212 -0.47041862 -0.47041851
 -0.39865222  0.0953847   0.10945384  0.13285729  0.13285733  0.16165947
  0.16165953  0.18281929  0.19671492  0.20633761  0.20633762  0.23794822
  0.23794824  0.26840297  0.28448439  0.28448441  0.36719572  0.37748534
  0.37748537  0.39990958  0.40970533  0.40970542  0.42388069  0.45436092
  0.46346756  0.46346759  0.53196255  0.53196267  0.55185312  0.61054283
  0.64752376  0.64752379  0.6569388   0.68248364  0.76841885  0.78099776
  0.78099778  0.80800908  0.80800916  0.81324317  0.83960278  0.83960279
  0.84983454  0.84983455  0.92979524  0.92979527  0.93066274  0.96054523
  0.98281298  1.0018537   1.02263744  1.02263745  1.02626266  1.03403066
  1.03403068  1.06140183  1.07564508  1.07564514  1.11086888  1.11086889
  1.12440559  1.12440563  1.20661263  1.20661266  1.21466365  1.22832101
  1.25269384  1.33083523  1.33083526  1.37632564  1.40190584  1.40190588
  1.42585544  1.42585558  1.43876757  1.57496348  1.58680783  1.58680787
  1.5951904   1.5951905   1.7200789   1.73881672  1.73881674  1.74113602
  1.74113607  1.82310288  1.96261709  1.96261715  1.981636    2.04103841
  2.06376368  2.09105836  2.09105847  2.1699064   2.16990658  2.19867306
  2.224356    2.22435607  2.26029773  2.26787666  2.30342616  2.34483478
  2.35044881  2.35044886  2.38210631  2.38210643  2.43211955  2.44309081
  2.44309082  2.46103001  2.48313193  2.50466445  2.52774033  2.52774055
  2.537752    2.53775218  2.55009194  2.5528519   2.58217027  2.58217037
  2.59367628  2.59367633  2.63411212  2.6403821   2.64038222  2.64900361
  2.76458639  2.77103047  2.77103054  2.77341025  2.81642898  2.83799086
  2.83799091  2.85043921  2.8504394   2.87952369  2.87952375  2.90904349
  2.90904365  2.91686171  2.934321    2.93432114  3.00813756  3.00863649
  3.0382873   3.03828747  3.0861943   3.11308639  3.11308649  3.24472161
  3.24472171  3.33523537  3.41239083  3.41239107  3.46650709  3.46650713
  3.47374165  3.50928843  3.50928861  3.59934054  3.68151652  3.68151703
  3.69120145  3.69120179  3.74263617  3.76624648  3.76624661  3.82512843
  3.8251287   3.83455569  3.83611539  3.83611554  3.89475952  3.89475966
  3.98550791  3.99091554  4.00083138  4.21350742  5.49153115  5.49153134
  5.52023792  5.52112552  5.52112577  5.70221173  6.18457942  6.18627573
  6.22011763  6.2201177   6.22314353  6.22314355  6.26152357  6.26152362
  6.2652523   6.26525235  6.32468265  6.32839406  6.42517119  6.4829417
  6.48432657  6.50317092  6.50802186  6.5080219   6.51493118  6.51493135
  6.56050006  6.62099054  6.6370719   6.63707194  6.68440733  6.68440742
  6.75543626  6.75543718  6.76852489  6.76852576  6.8411479   6.84114842
  6.85711964  6.87826548  6.9201539   6.92015411  7.01761712  7.01761735
  7.11409215  7.11409236  7.13949629  7.14348677  7.1434869   7.14680222
  7.14680232  7.15310594  7.20895381  7.23943517  8.29075135  8.33582013
  8.34001023  8.34001042  8.3626542   8.36265441  8.44189517  8.44189521
  8.49297772  8.50337748  8.52036537  8.52036541  8.62248758  8.62248764
  8.62765809  8.63726134  8.6432526   8.70552983  8.70553006  8.73796335
  8.73796338  8.74663238  8.76446045  8.76446059  8.96188317  8.96737007
  8.96737038  9.03315874  9.03463101  9.04364704  9.04364709  9.06253675
  9.06253686  9.07573592  9.07573634  9.1877647   9.22697439  9.25064607
  9.25064623  9.2686352   9.26863539  9.30892467  9.38137455  9.40884291
  9.92186823  9.92186865  9.92599644  9.92599689 11.35102237 11.38248829]
E1 = -51.93916062924641  E_coul = 22.168489314741418
cycle= 3 E= -11.0209148614469  delta_E= -0.00356  |g|= 0.00983  |ddm|= 0.225
    CPU time for cycle= 3     98.50 sec, wall time      0.78 sec
  HOMO = -0.40597517522406  LUMO = 0.0944273351668199
  mo_energy =
[-0.76130121 -0.68200048 -0.50104824 -0.50104813 -0.47429035 -0.47429023
 -0.40597518  0.09442734  0.10797864  0.1290503   0.12905034  0.1596526
  0.15965265  0.18144542  0.19503663  0.20522476  0.20522478  0.23700193
  0.23700194  0.26486694  0.28176345  0.28176346  0.36508574  0.37506211
  0.37506214  0.39729505  0.40709481  0.40709489  0.42182166  0.45219848
  0.46058554  0.46058557  0.52897151  0.52897163  0.54869435  0.60708529
  0.64464531  0.64464533  0.65450411  0.68083658  0.76444604  0.77893948
  0.7789395   0.80491495  0.80491503  0.81058599  0.83534449  0.8353445
  0.84759828  0.84759829  0.92477125  0.92477128  0.92723316  0.95730613
  0.97920612  0.9975077   1.01837609  1.01837611  1.02308171  1.03062216
  1.03062218  1.05952335  1.07324116  1.07324122  1.10839482  1.10839482
  1.12099521  1.12099526  1.20334506  1.2033451   1.21217823  1.22506474
  1.24827365  1.32755322  1.32755324  1.37322094  1.39857039  1.39857042
  1.42187148  1.42187163  1.43345325  1.57224495  1.58459074  1.58459079
  1.59144575  1.59144584  1.7131985   1.73216313  1.73216315  1.73534422
  1.73534428  1.81753332  1.95694388  1.95694395  1.97681735  2.03725374
  2.05704677  2.08632217  2.08632228  2.16536385  2.16536403  2.19291806
  2.21869202  2.21869208  2.25389325  2.26186727  2.30095316  2.33909962
  2.34518775  2.34518779  2.37834491  2.37834504  2.42732935  2.43708529
  2.4370853   2.45553846  2.48063843  2.49979068  2.5223704   2.52237062
  2.53286854  2.53286872  2.54494542  2.54754001  2.57615486  2.57615496
  2.5901813   2.59018135  2.63255694  2.63815735  2.63815747  2.6465099
  2.75919393  2.76662022  2.76662029  2.7681729   2.81496925  2.83435298
  2.83435303  2.84770594  2.84770613  2.87576309  2.87576316  2.90453153
  2.90453169  2.91289664  2.93076922  2.93076935  3.00146192  3.00616164
  3.03407703  3.0340772   3.08345924  3.11028526  3.11028535  3.24122587
  3.24122598  3.33120645  3.40757664  3.40757687  3.45870508  3.45870511
  3.47065659  3.50503383  3.50503401  3.59608721  3.67768859  3.67768909
  3.68761257  3.68761291  3.73797651  3.76126262  3.76126275  3.82015821
  3.82015848  3.82983556  3.83123388  3.83123403  3.88976833  3.88976847
  3.98112368  3.98600225  3.99517705  4.20520823  5.48444451  5.48444471
  5.51132463  5.51379875  5.513799    5.69349944  6.18370893  6.18540658
  6.21908512  6.2190852   6.22209503  6.22209505  6.26056623  6.26056628
  6.26415996  6.26416001  6.32363375  6.32734947  6.42346022  6.48104049
  6.48250419  6.50124209  6.50630201  6.50630205  6.51322672  6.51322689
  6.55794022  6.61856009  6.63440194  6.63440198  6.68137593  6.68137603
  6.75237525  6.75237616  6.76519976  6.76520061  6.83891705  6.83891756
  6.8538691   6.87498046  6.91771614  6.91771635  7.01448575  7.01448598
  7.11137258  7.11137279  7.13760599  7.14149286  7.14149299  7.14479298
  7.14479307  7.15030271  7.20635896  7.23754066  8.29059374  8.33579341
  8.33989101  8.33989119  8.36266991  8.36267012  8.44191157  8.44191161
  8.4929332   8.50329157  8.52047463  8.52047466  8.62273604  8.6227361
  8.62788117  8.63726062  8.64379143  8.70561118  8.70561141  8.73808389
  8.73808392  8.74692742  8.76478836  8.76478849  8.96137642  8.9664466
  8.96644691  9.03250809  9.03337764  9.04303257  9.04303261  9.06213012
  9.06213023  9.0749926   9.07499301  9.18659039  9.22572825  9.25036862
  9.25036878  9.2683157   9.26831589  9.30812929  9.37789531  9.40580246
  9.91980635  9.91980677  9.92395406  9.92395451 11.34139014 11.37295613]
E1 = -51.94661792008774  E_coul = 22.17586867920425
cycle= 4 E= -11.0209927878254  delta_E= -7.79e-05  |g|= 0.00255  |ddm|= 0.0313
    CPU time for cycle= 4     93.44 sec, wall time      0.74 sec
  HOMO = -0.40553234104356  LUMO = 0.0944720537482141
  mo_energy =
[-0.76081323 -0.68185182 -0.50084325 -0.50084314 -0.4742594  -0.47425928
 -0.40553234  0.09447205  0.10802593  0.12946042  0.12946047  0.15979618
  0.15979624  0.18144658  0.19488664  0.20531902  0.20531904  0.23704128
  0.2370413   0.26515242  0.28200572  0.28200574  0.36516356  0.37520534
  0.37520537  0.39724715  0.40728943  0.40728951  0.42183173  0.45217688
  0.46071522  0.46071525  0.5290989   0.52909903  0.54871245  0.60714251
  0.64481239  0.64481241  0.65453666  0.68081845  0.76462179  0.77901497
  0.77901499  0.80507212  0.8050722   0.81069408  0.8356546   0.83565461
  0.8476809   0.84768091  0.92502979  0.92502983  0.92737032  0.95749059
  0.97927926  0.9977995   1.01860518  1.01860519  1.02307919  1.03071876
  1.03071877  1.05958154  1.07328015  1.07328021  1.10846631  1.10846631
  1.12118475  1.1211848   1.20350369  1.20350373  1.21223779  1.22520179
  1.24854375  1.32766445  1.32766447  1.37328427  1.39857597  1.398576
  1.42202098  1.42202112  1.43402372  1.57228334  1.58463718  1.58463723
  1.59163405  1.59163415  1.71366869  1.7326701   1.73267012  1.73567919
  1.73567924  1.81742328  1.95745328  1.95745335  1.9768945   2.03724455
  2.05748082  2.08660009  2.0866002   2.16545555  2.16545572  2.19315169
  2.21913351  2.21913358  2.25433195  2.26232805  2.30098992  2.33930944
  2.34563646  2.3456365   2.37835234  2.37835246  2.42748306  2.43743934
  2.43743935  2.45601349  2.48072562  2.5000436   2.52265331  2.52265353
  2.53309035  2.53309053  2.54526452  2.54795497  2.57656164  2.57656174
  2.59045027  2.59045032  2.63263146  2.63816386  2.63816399  2.64662363
  2.75978119  2.76691878  2.76691886  2.7684967   2.81510073  2.83454223
  2.83454228  2.84788792  2.84788811  2.87595309  2.87595316  2.90475681
  2.90475697  2.91319609  2.93104513  2.93104526  3.00234415  3.00632005
  3.03432277  3.03432294  3.0836464   3.11044585  3.11044594  3.24145547
  3.24145558  3.33134177  3.40779581  3.40779604  3.45932291  3.45932294
  3.47082099  3.50526232  3.5052625   3.59623744  3.67787784  3.67787834
  3.6878298   3.68783014  3.7383043   3.76165982  3.76165995  3.82040616
  3.82040643  3.83001561  3.83149952  3.83149968  3.89003682  3.89003696
  3.9812671   3.98618698  3.99545725  4.20621357  5.48492025  5.48492045
  5.51210075  5.51430392  5.51430417  5.69416446  6.18370385  6.18540193
  6.21911268  6.21911275  6.22211429  6.22211431  6.26058443  6.26058448
  6.26419396  6.26419401  6.32366402  6.32736828  6.42355054  6.48106704
  6.48255128  6.50134655  6.50632296  6.506323    6.51325437  6.51325453
  6.55807163  6.61865463  6.63444432  6.63444435  6.68145256  6.68145265
  6.75248021  6.75248112  6.7653157   6.76531656  6.83898315  6.83898366
  6.85399069  6.87508641  6.91782731  6.91782752  7.01462548  7.01462571
  7.11142962  7.11142983  7.13775892  7.14156984  7.14156997  7.14489389
  7.14489398  7.15036465  7.20641088  7.23773349  8.29059371  8.33580853
  8.33994895  8.33994913  8.36270669  8.3627069   8.44192298  8.44192302
  8.49300147  8.5033182   8.5204828   8.52048283  8.62280565  8.62280572
  8.62791244  8.63724397  8.64384832  8.70568501  8.70568524  8.73812054
  8.73812057  8.74696349  8.76480165  8.76480179  8.9614414   8.96654013
  8.96654044  9.03256315  9.03346523  9.04309487  9.04309491  9.06217425
  9.06217436  9.07504312  9.07504353  9.1867664   9.2258138   9.25043046
  9.25043061  9.26840154  9.26840173  9.30827776  9.37813267  9.40598573
  9.91988568  9.9198861   9.92403019  9.92403063 11.34204693 11.37362305]
E1 = -51.94447086186352  E_coul = 22.173714966625127
cycle= 5 E= -11.0209994421803  delta_E= -6.65e-06  |g|= 0.000352  |ddm|= 0.0107
    CPU time for cycle= 5     94.72 sec, wall time      0.76 sec
  HOMO = -0.405636909715183  LUMO = 0.0944933909995113
  mo_energy =
[-0.76085605 -0.68184884 -0.50082778 -0.50082767 -0.47424627 -0.47424615
 -0.40563691  0.09449339  0.10801008  0.12943831  0.12943835  0.15978556
  0.15978562  0.18147867  0.1949126   0.20531225  0.20531226  0.23704868
  0.2370487   0.26514294  0.28200862  0.28200863  0.36513791  0.37519969
  0.37519972  0.39728265  0.40726946  0.40726954  0.42183151  0.45218952
  0.46071575  0.46071578  0.52908635  0.52908647  0.54873381  0.60715849
  0.64479098  0.644791    0.6545258   0.68082883  0.76461556  0.77902969
  0.77902971  0.80508166  0.80508174  0.81067974  0.83562559  0.8356256
  0.84767952  0.84767953  0.92502712  0.92502716  0.9273524   0.95742195
  0.97924504  0.99780136  1.01859653  1.01859655  1.02311641  1.030711
  1.03071102  1.05958819  1.07327521  1.07327527  1.10846979  1.10846979
  1.12119017  1.12119022  1.20350756  1.2035076   1.21225415  1.22515531
  1.24854412  1.32766103  1.32766105  1.37330443  1.39861006  1.3986101
  1.42205648  1.42205663  1.43400499  1.57227946  1.58466703  1.58466708
  1.59167078  1.59167088  1.71365614  1.73262414  1.73262416  1.73564194
  1.73564199  1.81752034  1.95743567  1.95743573  1.97694123  2.03730555
  2.05748576  2.08659123  2.08659134  2.165502    2.16550217  2.1931657
  2.21911187  2.21911193  2.25429563  2.26236107  2.30101066  2.33932788
  2.34561397  2.34561401  2.37840736  2.37840748  2.42752123  2.43745185
  2.43745186  2.45595426  2.48073552  2.50007714  2.52266324  2.52266346
  2.53312198  2.53312215  2.54526646  2.54791568  2.57659141  2.57659151
  2.59045008  2.59045013  2.63265233  2.63821258  2.63821271  2.64664802
  2.75976598  2.76694356  2.76694363  2.76848965  2.81512666  2.83457621
  2.83457626  2.84791379  2.84791398  2.87598889  2.87598895  2.90479492
  2.90479508  2.91322937  2.93107241  2.93107254  3.00235032  3.00633243
  3.03434824  3.0343484   3.0836696   3.11046618  3.11046627  3.24146232
  3.24146242  3.33137135  3.40780203  3.40780226  3.45931758  3.45931762
  3.47087483  3.50526863  3.50526881  3.59628049  3.67792581  3.67792631
  3.68787129  3.68787163  3.73831687  3.76166973  3.76166986  3.82042502
  3.82042529  3.83005394  3.83154643  3.83154659  3.89007419  3.89007433
  3.98131013  3.98624942  3.9955115   4.20621983  5.48497595  5.48497615
  5.51215989  5.51435442  5.51435467  5.69422439  6.18377413  6.18547155
  6.21917092  6.21917099  6.22217827  6.22217829  6.26064579  6.26064584
  6.26424948  6.26424953  6.32372192  6.32743246  6.42360598  6.48114842
  6.48262813  6.50139713  6.50640656  6.50640661  6.51333186  6.51333202
  6.55815386  6.61874158  6.63453685  6.63453689  6.68154148  6.68154157
  6.75256054  6.75256145  6.76540135  6.76540221  6.83906029  6.83906081
  6.85406479  6.87516688  6.91789151  6.91789172  7.01469684  7.01469707
  7.11151992  7.11152013  7.13784487  7.14167324  7.14167337  7.14498913
  7.14498923  7.15045393  7.20650123  7.23781694  8.29069171  8.33590376
  8.34002975  8.34002993  8.36279438  8.36279458  8.4420143   8.44201434
  8.49308003  8.50340759  8.52057536  8.5205754   8.6228977   8.62289777
  8.62801434  8.63735845  8.64394368  8.70577478  8.705775    8.73821809
  8.73821812  8.74706501  8.76490786  8.764908    8.9615426   8.96662824
  8.96662855  9.03265943  9.03355377  9.04319005  9.0431901   9.06227319
  9.06227331  9.07513981  9.07514022  9.18684538  9.2259004   9.25053217
  9.25053232  9.26849588  9.26849607  9.30836529  9.37823115  9.40608721
  9.92000194  9.92000236  9.92414708  9.92414752 11.34212225 11.37369452]
E1 = -51.94449181556466  E_coul = 22.1737357941935
cycle= 6 E= -11.0209995683131  delta_E= -1.26e-07  |g|= 5.87e-05  |ddm|= 0.0023
    CPU time for cycle= 6    102.02 sec, wall time      0.80 sec
  HOMO = -0.405635606467153  LUMO = 0.0944878813737841
  mo_energy =
[-0.76086167 -0.68185775 -0.50083031 -0.5008302  -0.47425102 -0.47425091
 -0.40563561  0.09448788  0.10800758  0.12944031  0.12944035  0.1597828
  0.15978286  0.18147362  0.19490479  0.20531081  0.20531083  0.23704771
  0.23704772  0.26513847  0.2820067   0.28200672  0.36513584  0.37519676
  0.37519678  0.39727512  0.4072674   0.40726749  0.42182743  0.452186
  0.46071215  0.46071218  0.52908311  0.52908323  0.54872745  0.60714961
  0.64478838  0.6447884   0.65452434  0.68082635  0.76461115  0.77902728
  0.77902731  0.80507783  0.80507792  0.81067634  0.83562392  0.83562392
  0.84767667  0.84767668  0.92502189  0.92502193  0.9273484   0.95742278
  0.97924098  0.99779668  1.01859223  1.01859225  1.02310675  1.0307062
  1.03070622  1.05958536  1.07327042  1.07327048  1.1084664   1.1084664
  1.1211866   1.12118665  1.20350308  1.20350311  1.21224908  1.22515514
  1.24854066  1.3276565   1.32765652  1.37329862  1.39860131  1.39860134
  1.42204988  1.42205003  1.43400471  1.57227459  1.58466172  1.58466177
  1.5916656   1.5916657   1.71364923  1.73262277  1.73262279  1.73563914
  1.73563919  1.8174991   1.95743413  1.95743419  1.97693341  2.03729655
  2.05747764  2.08658798  2.08658809  2.16549254  2.16549271  2.1931574
  2.21911054  2.21911061  2.25429408  2.26235443  2.30100557  2.33932026
  2.34561256  2.3456126   2.37839705  2.37839717  2.42751237  2.43744635
  2.43744636  2.45595601  2.48073243  2.50007086  2.52265771  2.52265793
  2.53311444  2.53311462  2.54526111  2.54791633  2.57658441  2.57658451
  2.59044776  2.59044781  2.6326496   2.63820453  2.63820465  2.64664474
  2.75976616  2.76693843  2.7669385   2.76848583  2.81512486  2.83456966
  2.83456971  2.84790958  2.84790977  2.87598237  2.87598244  2.90478811
  2.90478827  2.91322348  2.93106886  2.931069    3.00234933  3.00632996
  3.03434241  3.03434257  3.08366539  3.1104627   3.11046279  3.24145927
  3.24145938  3.33136353  3.4077972   3.40779743  3.45931161  3.45931165
  3.47086789  3.5052654   3.50526558  3.59627427  3.67791872  3.67791922
  3.68786543  3.68786577  3.7383122   3.76166617  3.7616663   3.82041899
  3.82041926  3.83004755  3.83153924  3.83153939  3.89006755  3.89006769
  3.98130356  3.98623974  3.9955016   4.20621728  5.48496687  5.48496707
  5.51214895  5.51434568  5.51434594  5.69421205  6.18376872  6.18546618
  6.21916661  6.21916668  6.22217337  6.22217339  6.26064114  6.26064118
  6.26424539  6.26424544  6.32371759  6.32742754  6.42360195  6.48114126
  6.48262225  6.50139347  6.50639988  6.50639992  6.51332564  6.5133258
  6.55814761  6.61873525  6.63452842  6.63452845  6.68153338  6.68153347
  6.75255229  6.7525532   6.76539268  6.76539353  6.83905454  6.83905505
  6.85405727  6.87515815  6.91788755  6.91788775  7.01469077  7.014691
  7.11151144  7.11151165  7.13784074  7.14166629  7.14166642  7.14498322
  7.14498331  7.15044717  7.20649447  7.23781334  8.29068738  8.33590008
  8.3400277   8.34002788  8.36279169  8.36279189  8.4420106   8.44201064
  8.49307861  8.50340448  8.52057164  8.52057167  8.62289619  8.62289625
  8.62801106  8.6373532   8.64394183  8.70577379  8.70577402  8.73821536
  8.73821539  8.74706204  8.7649037   8.76490383  8.96153776  8.96662532
  8.96662563  9.03265472  9.03355107  9.04318686  9.04318691  9.06226904
  9.06226916  9.07513537  9.07513578  9.18684289  9.2258978   9.25052815
  9.2505283   9.26849274  9.26849293  9.30836268  9.37822495  9.4060809
  9.91999588  9.91999629  9.92414093  9.92414138 11.34210803 11.37368117]
E1 = -51.944479231542644  E_coul = 22.173723206571864
cycle= 7 E= -11.0209995719127  delta_E= -3.6e-09  |g|= 9.7e-06  |ddm|= 0.000437
    CPU time for cycle= 7     83.35 sec, wall time      0.68 sec
  HOMO = -0.405635121467772  LUMO = 0.0944878030674504
  mo_energy =
[-0.76086172 -0.68185754 -0.50083043 -0.50083033 -0.47425141 -0.4742513
 -0.40563512  0.0944878   0.10800748  0.1294402   0.12944025  0.15978222
  0.15978228  0.18147386  0.19490459  0.20531044  0.20531046  0.23704756
  0.23704758  0.26513851  0.28200657  0.28200658  0.36513554  0.37519629
  0.37519632  0.39727503  0.40726711  0.40726719  0.42182734  0.45218584
  0.46071183  0.46071186  0.52908266  0.52908278  0.54872737  0.60714978
  0.64478797  0.64478799  0.65452402  0.68082609  0.76461096  0.77902689
  0.77902691  0.80507765  0.80507773  0.81067587  0.83562375  0.83562376
  0.84767623  0.84767624  0.92502186  0.9250219   0.92734815  0.95742219
  0.97924056  0.99779676  1.01859213  1.01859215  1.0231067   1.03070589
  1.03070591  1.05958493  1.07327007  1.07327013  1.1084661   1.1084661
  1.1211865   1.12118655  1.20350292  1.20350296  1.21224875  1.22515465
  1.24854055  1.32765618  1.3276562   1.37329842  1.39860103  1.39860106
  1.42204964  1.42204979  1.43400492  1.57227396  1.58466124  1.58466129
  1.59166522  1.59166532  1.71364937  1.73262282  1.73262284  1.73563908
  1.73563914  1.81749903  1.95743412  1.95743418  1.97693308  2.03729619
  2.05747786  2.0865877   2.08658781  2.16549214  2.16549231  2.19315699
  2.21911047  2.21911054  2.25429398  2.26235453  2.30100503  2.33931996
  2.34561244  2.34561248  2.3783967   2.37839682  2.42751205  2.43744648
  2.43744649  2.45595567  2.48073188  2.50007075  2.52265751  2.52265773
  2.53311411  2.53311429  2.54526102  2.54791604  2.57658456  2.57658466
  2.59044731  2.59044736  2.6326491   2.63820406  2.63820419  2.64664432
  2.75976628  2.76693846  2.76693853  2.76848568  2.81512453  2.83456954
  2.83456958  2.84790908  2.84790927  2.8759821   2.87598216  2.90478789
  2.90478805  2.91322326  2.93106862  2.93106875  3.00235005  3.00632967
  3.03434214  3.03434231  3.08366503  3.11046228  3.11046237  3.24145891
  3.24145902  3.33136314  3.40779704  3.40779727  3.45931193  3.45931197
  3.47086746  3.50526518  3.50526536  3.59627379  3.67791828  3.67791879
  3.68786505  3.68786539  3.73831201  3.76166602  3.76166615  3.82041864
  3.82041891  3.83004724  3.83153914  3.8315393   3.89006737  3.89006751
  3.98130321  3.9862393   3.99550136  4.20621807  5.48496695  5.48496715
  5.51214964  5.51434586  5.51434611  5.69421253  6.18376783  6.18546528
  6.21916568  6.21916576  6.22217244  6.22217246  6.26064021  6.26064026
  6.26424446  6.26424451  6.32371668  6.32742666  6.42360101  6.48114032
  6.48262133  6.50139252  6.50639897  6.50639901  6.51332474  6.51332491
  6.55814668  6.6187343   6.6345275   6.63452753  6.68153255  6.68153265
  6.7525513   6.75255221  6.76539177  6.76539263  6.83905363  6.83905414
  6.85405619  6.87515716  6.91788657  6.91788677  7.0146898   7.01469004
  7.11151049  7.1115107   7.13783966  7.14166518  7.14166531  7.14498212
  7.14498222  7.15044622  7.20649351  7.23781232  8.2906861   8.33589879
  8.34002629  8.34002647  8.36279035  8.36279055  8.44200932  8.44200936
  8.4930771   8.50340317  8.52057039  8.52057043  8.62289473  8.62289479
  8.62800954  8.63735182  8.64394063  8.7057723   8.70577253  8.73821389
  8.73821392  8.74706088  8.76490233  8.76490246  8.96153662  8.96662389
  8.9666242   9.03265343  9.03354972  9.04318561  9.04318566  9.06226783
  9.06226794  9.07513398  9.07513439  9.18684157  9.22589645  9.25052696
  9.25052711  9.2684915   9.26849169  9.30836138  9.37822395  9.40607979
  9.91999444  9.91999486  9.9241395   9.92413994 11.3421086  11.37368169]
E1 = -51.944475967417716  E_coul = 22.173719942339417
cycle= 8 E= -11.0209995720202  delta_E= -1.08e-10  |g|= 1.03e-06  |ddm|= 6.24e-05
    CPU time for cycle= 8     89.96 sec, wall time      0.71 sec
  HOMO = -0.405635175173572  LUMO = 0.0944878237045742
  mo_energy =
[-0.76086171 -0.68185754 -0.50083048 -0.50083037 -0.47425144 -0.47425132
 -0.40563518  0.09448782  0.10800753  0.12944028  0.12944032  0.15978224
  0.1597823   0.18147392  0.19490462  0.20531048  0.20531049  0.23704759
  0.23704761  0.26513855  0.28200659  0.2820066   0.36513557  0.37519632
  0.37519634  0.39727508  0.40726714  0.40726722  0.42182737  0.4521859
  0.46071186  0.46071189  0.52908269  0.52908282  0.54872742  0.60714981
  0.644788    0.64478803  0.65452409  0.68082616  0.76461101  0.77902694
  0.77902696  0.80507769  0.80507777  0.81067591  0.8356238   0.83562381
  0.84767627  0.84767628  0.92502191  0.92502195  0.9273482   0.95742224
  0.97924059  0.99779679  1.01859217  1.01859219  1.02310671  1.03070593
  1.03070594  1.05958497  1.0732701   1.07327017  1.10846615  1.10846615
  1.12118655  1.1211866   1.20350296  1.203503    1.21224878  1.22515471
  1.24854062  1.32765622  1.32765624  1.37329847  1.39860106  1.39860109
  1.42204969  1.42204983  1.43400499  1.572274    1.58466129  1.58466134
  1.59166529  1.59166539  1.71364939  1.73262289  1.73262291  1.73563914
  1.7356392   1.81749899  1.9574342   1.95743426  1.97693316  2.03729626
  2.0574779   2.08658777  2.08658788  2.16549219  2.16549237  2.19315703
  2.21911055  2.21911062  2.25429407  2.26235457  2.3010051   2.33932002
  2.34561251  2.34561255  2.37839674  2.37839686  2.42751209  2.43744655
  2.43744656  2.45595575  2.48073195  2.50007082  2.52265758  2.5226578
  2.53311416  2.53311433  2.54526107  2.54791613  2.57658462  2.57658472
  2.59044738  2.59044743  2.63264916  2.6382041   2.63820422  2.64664438
  2.75976636  2.76693852  2.7669386   2.76848574  2.81512461  2.83456958
  2.83456963  2.84790913  2.84790932  2.87598214  2.87598221  2.90478794
  2.9047881   2.91322331  2.93106868  2.93106882  3.00235012  3.00632974
  3.03434219  3.03434236  3.08366509  3.11046234  3.11046244  3.24145898
  3.24145908  3.33136317  3.40779711  3.40779733  3.45931197  3.45931201
  3.47086751  3.50526526  3.50526544  3.59627384  3.67791834  3.67791884
  3.68786511  3.68786545  3.73831206  3.76166609  3.76166622  3.8204187
  3.82041896  3.83004732  3.83153921  3.83153936  3.89006743  3.89006757
  3.98130329  3.98623936  3.9955014   4.20621813  5.48496702  5.48496722
  5.51214967  5.51434593  5.51434619  5.69421255  6.18376791  6.18546536
  6.21916578  6.21916585  6.22217253  6.22217255  6.2606403   6.26064034
  6.26424455  6.26424461  6.32371677  6.32742674  6.42360111  6.4811404
  6.48262142  6.50139262  6.50639905  6.5063991   6.51332483  6.51332499
  6.55814677  6.61873441  6.63452759  6.63452762  6.68153265  6.68153274
  6.75255138  6.75255229  6.76539186  6.76539272  6.83905373  6.83905424
  6.85405628  6.87515724  6.91788668  6.91788689  7.01468991  7.01469014
  7.11151058  7.11151079  7.13783978  7.14166528  7.14166541  7.14498223
  7.14498232  7.15044634  7.20649363  7.23781244  8.29068621  8.33589891
  8.34002641  8.3400266   8.36279047  8.36279067  8.44200944  8.44200948
  8.49307722  8.50340329  8.52057051  8.52057054  8.62289485  8.62289492
  8.62800966  8.63735194  8.64394075  8.70577243  8.70577266  8.73821402
  8.73821405  8.747061    8.76490244  8.76490257  8.96153673  8.96662402
  8.96662432  9.03265354  9.03354986  9.04318574  9.04318578  9.06226794
  9.06226805  9.07513409  9.0751345   9.18684168  9.22589659  9.25052707
  9.25052722  9.26849161  9.2684918   9.3083615   9.37822408  9.40607991
  9.91999457  9.91999499  9.92413963  9.92414008 11.34210863 11.37368173]
E1 = -51.94447594282897  E_coul = 22.173719917749874
Extra cycle  E= -11.020999572021  delta_E= -7.99e-13  |g|= 3.18e-07  |ddm|= 7.83e-06
    CPU time for scf_cycle   1245.47 sec, wall time     10.15 sec
    CPU time for SCF   1245.47 sec, wall time     10.15 sec
converged SCF energy = -11.020999572021
