#INFO: **** input file is /home/nkousuke/lustre/toBeSync/turboRVB/05turbo-genius-development/turbogenius_paper/04data/sanity_checks/03pyscf_HF_turbo_VMC_via_trexio/00open_boundary/results/SiH3/pyscf-HF-workflow/run.py ****

from pyscf_wrapper import Pyscf_wrapper

# input variables
pyscf_chkfile="pyscf.chk"
structure_file="SiH3.xyz"

# input variables
omp_num_threads=128
charge=0
spin=1
basis="ccecp-ccpvqz"
ecp="ccecp"
scf_method="HF"
dft_xc="NA"
solver_newton=False
MP2_flag=False
CCSD_flag=False
pyscf_output="out.pyscf"
twist_average=False
exp_to_discard=0.0
kpt=[0.0, 0.0, 0.0]
kpt_grid=[1, 1, 1]
smearing_method="fermi"
smearing_sigma=0.0

pyscf_calc=Pyscf_wrapper(
                        structure_file=structure_file,
                        chkfile=pyscf_chkfile,
                        )

pyscf_calc.run_pyscf(
                  omp_num_threads=omp_num_threads,
                  charge=charge,
                  spin=spin,
                  basis=basis,
                  ecp=ecp,
                  scf_method=scf_method,
                  dft_xc=dft_xc,
                  solver_newton=solver_newton,
                  MP2_flag=MP2_flag,
                  CCSD_flag=CCSD_flag,
                  pyscf_output=pyscf_output,
                  twist_average=twist_average,
                  exp_to_discard=exp_to_discard,
                  kpt=kpt,
                  kpt_grid=kpt_grid,
                  smearing_method=smearing_method,
                  smearing_sigma=smearing_sigma
                  )
                #INFO: ******************** input file end ********************


System: uname_result(system='Linux', node='spcc-238', release='5.4.0-66-generic', version='#74-Ubuntu SMP Wed Jan 27 22:54:38 UTC 2021', machine='x86_64', processor='x86_64')  Threads 128
Python 3.7.3 (default, Mar 27 2019, 22:11:17) 
[GCC 7.3.0]
numpy 1.20.1  scipy 1.7.3
Date: Mon Dec 19 18:08:22 2022
PySCF version 2.0.1
PySCF path  /home/nkousuke/application/anaconda3/lib/python3.7/site-packages/pyscf

[CONFIG] conf_file /home/nkousuke/.pyscf_conf.py
[INPUT] verbose = 5
[INPUT] max_memory = 506316.96484375 
[INPUT] num. atoms = 4
[INPUT] num. electrons = 7
[INPUT] charge = 0
[INPUT] spin (= nelec alpha-beta = 2S) = 1
[INPUT] symmetry False subgroup None
[INPUT] Mole.unit = A
[INPUT]  1 Si     0.000000000000   0.000000000000   0.079177000000 AA    0.000000000000   0.000000000000   0.149622845365 Bohr
[INPUT]  2 H      0.000000000000   1.407982000000  -0.369492000000 AA    0.000000000000   2.660700368317  -0.698238685218 Bohr
[INPUT]  3 H      1.219348000000  -0.703991000000  -0.369492000000 AA    2.304233770536  -1.330350184159  -0.698238685218 Bohr
[INPUT]  4 H     -1.219348000000  -0.703991000000  -0.369492000000 AA   -2.304233770536  -1.330350184159  -0.698238685218 Bohr
[INPUT] ---------------- BASIS SET ---------------- 
[INPUT] l, kappa, [nprim/nctr], expnt,             c_1 c_2 ...
[INPUT] Si
[INPUT] 0    0    [10   /1   ]  9.998274          0.002894
                                5.517644          -0.014523
                                3.044965          0.077634
                                1.680393          -0.224022
                                0.927341          -0.14908
                                0.511762          0.085944
                                0.282421          0.355394
                                0.155857          0.445219
                                0.086011          0.26723
                                0.047466          0.060787
[INPUT] 0    0    [1    /1   ]  0.488504             1
[INPUT] 0    0    [1    /1   ]  0.199457             1
[INPUT] 0    0    [1    /1   ]  0.081439             1
[INPUT] 1    0    [10   /1   ]  5.027868          -0.003242
                                2.867751          0.010649
                                1.635683          -0.049761
                                0.932947          -1.7e-05
                                0.532126          0.10606
                                0.303509          0.236202
                                0.173113          0.310665
                                0.098739          0.294696
                                0.056318          0.153898
                                0.032122          0.042337
[INPUT] 1    0    [1    /1   ]  1.22579              1
[INPUT] 1    0    [1    /1   ]  0.501364             1
[INPUT] 1    0    [1    /1   ]  0.205064             1
[INPUT] 2    0    [1    /1   ]  0.997003             1
[INPUT] 2    0    [1    /1   ]  0.365942             1
[INPUT] 2    0    [1    /1   ]  0.134316             1
[INPUT] 3    0    [1    /1   ]  0.549116             1
[INPUT] 3    0    [1    /1   ]  0.214998             1
[INPUT] 4    0    [1    /1   ]  0.459547             1
[INPUT] H
[INPUT] 0    0    [8    /1   ]  23.843185         0.0041149
                                10.212443         0.0104644
                                4.374164          0.0280111
                                1.873529          0.0758862
                                0.802465          0.1821062
                                0.343709          0.3485214
                                0.147217          0.3782313
                                0.063055          0.1164241
[INPUT] 0    0    [1    /1   ]  0.081856             1
[INPUT] 0    0    [1    /1   ]  0.233254             1
[INPUT] 0    0    [1    /1   ]  0.664673             1
[INPUT] 1    0    [1    /1   ]  0.284469             1
[INPUT] 1    0    [1    /1   ]  0.847159             1
[INPUT] 1    0    [1    /1   ]  2.522868             1
[INPUT] 2    0    [1    /1   ]  0.665279             1
[INPUT] 2    0    [1    /1   ]  2.048739             1
[INPUT] 3    0    [1    /1   ]  1.42146              1

nuclear repulsion = 4.94816216408442
number of shells = 44
number of NR pGTOs = 201
number of NR cGTOs = 144
basis = ccecp-ccpvqz
ecp = ccecp
CPU time:         4.75


******** <class 'pyscf.scf.rohf.ROHF'> ********
method = ROHF-RHF
initial guess = minao
damping factor = 0
level_shift factor = 0
DIIS = <class 'pyscf.scf.diis.CDIIS'>
diis_start_cycle = 1
diis_space = 8
SCF conv_tol = 1e-09
SCF conv_tol_grad = None
SCF max_cycles = 200
direct_scf = True
direct_scf_tol = 1e-13
chkfile to save SCF result = pyscf.chk
max_memory 506316 MB (current use 106 MB)
num. doubly occ = 3  num. singly occ = 1
Set gradient conv threshold to 3.16228e-05
E1 = -16.579132485236418  Ecoul = 6.665762276961767
init E= -4.96520804419023
cond(S) = 25931.653077425395
    CPU time for initialize scf    152.85 sec, wall time      1.46 sec
  HOMO = -0.139902845113119  LUMO = 0.0917650589346221
                  Roothaan           | alpha              | beta
  Highest 2-occ =  -0.42180943152481 | -0.421809431524807 | -0.421809431524807
  Lowest 0-occ =  0.0917650589346221 |  0.091765058934632 |  0.091765058934632
  1-occ =         -0.139902845113119 | -0.139902845113117 | -0.139902845113117
  Roothaan mo_energy =
[-0.83501295 -0.42180943 -0.42180943 -0.13990285  0.09176506  0.11059449
  0.1105945   0.20833986  0.2137711   0.2137711   0.27166111  0.27166111
  0.29217418  0.34140338  0.34140339  0.37861236  0.41507815  0.55121842
  0.55121843  0.64311774  0.68498345  0.68498347  0.73875457  0.81257234
  0.81257235  0.85100123  0.85100123  0.85490133  0.89775063  0.89775063
  0.91078207  0.99846077  1.05424081  1.07012634  1.07012643  1.0838515
  1.0838515   1.20288844  1.31668738  1.31668744  1.37136228  1.41937623
  1.4400899   1.44008997  1.6483968   1.64839682  1.93662461  1.95525374
  1.98451153  1.98451157  2.04002602  2.04002603  2.12657323  2.22632922
  2.22632923  2.25819056  2.25819056  2.26427037  2.27058867  2.35322215
  2.42202858  2.47804537  2.47804542  2.50971086  2.52007913  2.52007917
  2.57005308  2.60053442  2.60053443  2.73155368  2.73155372  2.78420252
  2.78420254  2.82463499  2.84856683  2.86620339  2.8759884   2.87598846
  3.06247673  3.0624768   3.41807723  3.41807725  3.4317147   3.4925566
  3.58754679  3.58754693  3.615688    3.61568811  3.72062564  3.72062567
  3.83082545  3.91806362  5.20614581  5.38054393  5.38054401  6.11865415
  6.14512691  6.14512692  6.16652802  6.16652804  6.24736816  6.367686
  6.39394199  6.39394211  6.46371269  6.48206291  6.53607062  6.53607075
  6.65738959  6.65738988  6.73481529  6.77355343  6.77355357  6.92125187
  6.92125188  7.01698281  7.04421965  7.04421967  7.11393745  8.21606175
  8.24920471  8.24920474  8.32292297  8.32292304  8.37805022  8.5055776
  8.54929514  8.54929519  8.58916912  8.61373851  8.61373855  8.86292492
  8.86292494  8.86590172  8.93493233  8.93493246  9.05447127  9.0606773
  9.12649154  9.12649156  9.19993993  9.76218986  9.76219008 11.20750612]
E1 = -16.987309935386165  Ecoul = 6.596955349004011
cycle= 1 E= -5.44219242229774  delta_E= -0.477  |g|= 0.15  |ddm|= 1.87
    CPU time for cycle= 1    109.21 sec, wall time      0.93 sec
  HOMO = -0.157894716817957  LUMO = 0.11690341021444
                  Roothaan           | alpha              | beta
  Highest 2-occ = -0.502974151157847 | -0.511856300394838 | -0.494092001920854
  Lowest 0-occ =    0.11690341021444 |   0.11300071351957 |  0.120824015911192
  1-occ =         -0.157894716817957 | -0.334054184880534 |  0.030221805243963
  Roothaan mo_energy =
[-0.7320658  -0.50297415 -0.50297415 -0.15789472  0.11690341  0.13555869
  0.1355587   0.21492642  0.21492642  0.22483814  0.27739539  0.2773954
  0.29707215  0.35304703  0.35304705  0.38738286  0.44407112  0.56618139
  0.5661814   0.65456326  0.69326349  0.69326351  0.7465828   0.82073412
  0.82073413  0.85652324  0.85652325  0.86100381  0.90429621  0.90429621
  0.91476307  1.00983657  1.05776444  1.08309975  1.08309984  1.08906386
  1.08906386  1.21806917  1.33124345  1.33124351  1.371357    1.43724799
  1.47022863  1.4702287   1.65313965  1.65313967  1.96271694  1.96530119
  2.00361919  2.00361924  2.06058939  2.0605894   2.14721193  2.24153623
  2.24153624  2.26761248  2.26761249  2.27440832  2.29127586  2.36478772
  2.43244636  2.49169466  2.49169471  2.52438709  2.53916011  2.53916015
  2.59003113  2.61010951  2.61010952  2.7457649   2.74576495  2.80347108
  2.80347111  2.83754878  2.86312844  2.88005873  2.89437736  2.89437743
  3.08012479  3.08012486  3.43375799  3.433758    3.44484193  3.51627606
  3.61088057  3.61088072  3.63399056  3.63399067  3.73839814  3.73839816
  3.85855606  3.94408274  5.21047915  5.40235265  5.40235272  6.15674215
  6.18375132  6.18375132  6.20470901  6.20470903  6.28545483  6.40931781
  6.43495623  6.43495636  6.50623895  6.52090733  6.58360357  6.58360371
  6.70192377  6.70192408  6.78150331  6.8168629   6.81686305  6.97054893
  6.97054895  7.05725188  7.0844645   7.0844645   7.16559462  8.25935908
  8.29178832  8.29178832  8.36493844  8.36493853  8.42052256  8.54824214
  8.58829042  8.58829047  8.62589812  8.65620612  8.65620613  8.9080399
  8.90803994  8.90922321  8.97703422  8.97703436  9.09359594  9.10053368
  9.16482543  9.16482546  9.24904197  9.81507251  9.81507275 11.22595012]
E1 = -17.10615878212032  Ecoul = 6.697378269233392
cycle= 2 E= -5.46061834880251  delta_E= -0.0184  |g|= 0.0467  |ddm|= 0.539
    CPU time for cycle= 2     95.81 sec, wall time      0.83 sec
  HOMO = -0.129567734831098  LUMO = 0.126519868145636
                  Roothaan           | alpha              | beta
  Highest 2-occ = -0.487113269192238 | -0.498334593872847 |  -0.48263408304534
  Lowest 0-occ =   0.126519868145636 |  0.121326940834602 |  0.127665432825654
  1-occ =         -0.129567734831098 | -0.333896606036603 | 0.0656541418336267
  Roothaan mo_energy =
[-0.70431857 -0.48711327 -0.48711327 -0.12956773  0.12651987  0.14965921
  0.14965922  0.21927345  0.21927346  0.23226705  0.29410105  0.29410106
  0.30778463  0.36582452  0.36582454  0.39520799  0.46015954  0.5803037
  0.58030371  0.66750247  0.70697233  0.70697234  0.75953264  0.83498851
  0.83498853  0.87348828  0.87348829  0.87999649  0.92542863  0.92542864
  0.92797401  1.02326616  1.06955136  1.09744122  1.09744132  1.10298829
  1.1029883   1.23884861  1.35027207  1.35027214  1.39838025  1.45456801
  1.4911869   1.49118698  1.67791653  1.67791655  1.98879917  1.99296213
  2.02756868  2.02756873  2.08880792  2.08880793  2.17585002  2.26621366
  2.26621367  2.29550747  2.29550747  2.3025579   2.3122779   2.39163586
  2.45781467  2.51850729  2.51850734  2.54659341  2.56373827  2.56373833
  2.60880513  2.63786252  2.63786253  2.77055032  2.77055036  2.82100457
  2.82100459  2.86147256  2.88235655  2.90541668  2.9205788   2.92057886
  3.1005589   3.10055897  3.45892433  3.45892434  3.46985741  3.54018435
  3.63678747  3.63678762  3.66014736  3.66014747  3.76700006  3.76700009
  3.88673007  3.97486683  5.25110235  5.44037845  5.44037853  6.18210452
  6.20973632  6.20973633  6.2301658   6.23016581  6.31108802  6.43852024
  6.463454    6.46345413  6.53951251  6.54923798  6.61689151  6.61689165
  6.736937    6.73693731  6.81625503  6.84897443  6.84897457  7.0051083
  7.00510832  7.09034816  7.11839489  7.1183949   7.20103369  8.28940025
  8.32146719  8.32146719  8.39425429  8.39425437  8.45027706  8.57963792
  8.61780883  8.61780888  8.65403756  8.68766767  8.68766768  8.94070315
  8.94096078  8.94096082  9.00776975  9.00776989  9.12839722  9.13444104
  9.19429482  9.19429485  9.28526263  9.85450441  9.85450464 11.27001114]
E1 = -17.100634917118946  Ecoul = 6.689094761064421
cycle= 3 E= -5.46337799197011  delta_E= -0.00276  |g|= 0.0108  |ddm|= 0.143
    CPU time for cycle= 3     98.52 sec, wall time      0.79 sec
  HOMO = -0.134586645595374  LUMO = 0.125667544928938
                  Roothaan           | alpha              | beta
  Highest 2-occ = -0.491562508675888 | -0.498819075577838 | -0.484591945638579
  Lowest 0-occ =   0.125667544928938 |  0.122308879564767 |  0.128368324737738
  1-occ =         -0.134586645595374 | -0.341489665810335 |  0.073403195175615
  Roothaan mo_energy =
[-0.70671414 -0.49156251 -0.49156251 -0.13458665  0.12566754  0.14784867
  0.14784868  0.21870813  0.21870813  0.2286112   0.29135581  0.29135581
  0.30654085  0.36356396  0.36356398  0.39329188  0.45729668  0.57764623
  0.57764623  0.6659921   0.70504957  0.70504959  0.75668238  0.83257836
  0.83257837  0.86983624  0.86983625  0.87517628  0.92008568  0.92008568
  0.92465157  1.02154077  1.0669304   1.09529566  1.09529576  1.10003612
  1.10003613  1.23458325  1.34617674  1.3461768   1.39119998  1.45213795
  1.48913524  1.48913531  1.67046257  1.67046259  1.98129694  1.98813371
  2.02376713  2.02376718  2.0833774   2.08337741  2.16928321  2.2611605
  2.26116051  2.28956375  2.28956375  2.29648533  2.30918745  2.38588353
  2.45285379  2.51273449  2.51273454  2.54325274  2.55982044  2.55982049
  2.60737342  2.63136154  2.63136155  2.76581145  2.76581149  2.82059673
  2.82059675  2.85781138  2.88039337  2.90045377  2.9157924   2.91579246
  3.09819557  3.09819564  3.45386259  3.4538626   3.46508425  3.53715278
  3.63296976  3.63296991  3.65505683  3.65505695  3.76128859  3.76128862
  3.88188614  3.96954084  5.23961052  5.4320971   5.43209717  6.1824883
  6.20989851  6.20989852  6.23046475  6.23046477  6.31136231  6.43760416
  6.46281326  6.46281339  6.53813146  6.54837331  6.61488544  6.61488558
  6.73370023  6.73370054  6.81354183  6.84763222  6.84763237  7.00319563
  7.00319565  7.08979302  7.11691719  7.1169172   7.19920776  8.29130865
  8.32343867  8.32343867  8.39654907  8.39654915  8.45217428  8.58208628
  8.62042719  8.62042724  8.65667888  8.68982574  8.68982576  8.94170401
  8.94170405  8.94182495  9.0090636   9.00906374  9.12669127  9.13482481
  9.19586436  9.1958644   9.28469035  9.85384773  9.85384797 11.2585352 ]
E1 = -17.10435670741032  Ecoul = 6.692615459950462
cycle= 4 E= -5.46357908337544  delta_E= -0.000201  |g|= 0.00307  |ddm|= 0.0475
    CPU time for cycle= 4     96.60 sec, wall time      0.77 sec
  HOMO = -0.132920899858969  LUMO = 0.125659932483774
                  Roothaan           | alpha              | beta
  Highest 2-occ =  -0.49128616286585 | -0.498133878320911 | -0.484162018400649
  Lowest 0-occ =   0.125659932483774 |  0.122706834260219 |  0.128659873752107
  1-occ =         -0.132920899858969 | -0.342883653440606 | 0.0770964743406804
  Roothaan mo_energy =
[-0.70587305 -0.49128617 -0.49128616 -0.1329209   0.12565993  0.14810151
  0.14810152  0.21879137  0.21879137  0.22782078  0.29174786  0.29174786
  0.30712929  0.36388681  0.36388683  0.39313881  0.45741559  0.57781434
  0.57781435  0.66607971  0.70520106  0.70520108  0.75666862  0.83283418
  0.83283419  0.87021381  0.87021382  0.87542268  0.92054255  0.92054256
  0.92481701  1.02176143  1.06699782  1.09549618  1.09549628  1.10029083
  1.10029084  1.23498947  1.34642747  1.34642753  1.39201604  1.4523252
  1.48946607  1.48946614  1.67096273  1.67096275  1.98181931  1.98840564
  2.02412036  2.02412041  2.08383999  2.08384001  2.16956282  2.2615911
  2.26159111  2.29031248  2.29031249  2.29723642  2.30937799  2.38653955
  2.45346027  2.51329694  2.51329698  2.54364669  2.56021564  2.56021569
  2.60763271  2.63205832  2.63205833  2.76637093  2.76637097  2.82089501
  2.82089503  2.85840597  2.88082737  2.90109305  2.91638317  2.91638323
  3.0985574   3.09855747  3.45429519  3.4542952   3.46558364  3.53759917
  3.63347635  3.6334765   3.65544733  3.65544745  3.76185524  3.76185526
  3.88226646  3.97003206  5.24097715  5.43297293  5.432973    6.18282728
  6.2102479   6.21024791  6.23080199  6.230802    6.31171373  6.43799736
  6.4632136   6.46321373  6.53869488  6.54877612  6.61534277  6.61534291
  6.73421189  6.73421219  6.81399576  6.84809366  6.8480938   7.00366511
  7.00366513  7.0904346   7.11751313  7.11751314  7.19971159  8.29181059
  8.32393292  8.32393293  8.39709393  8.39709401  8.45266045  8.58264375
  8.6209791   8.62097915  8.65730163  8.69036526  8.69036527  8.94222712
  8.94222717  8.94238075  9.00964151  9.00964165  9.1274743   9.13537249
  9.19646452  9.19646456  9.28532913  9.85448213  9.85448237 11.25966543]
E1 = -17.103659968898956  Ecoul = 6.6919041132489925
cycle= 5 E= -5.46359369156555  delta_E= -1.46e-05  |g|= 0.000353  |ddm|= 0.0125
    CPU time for cycle= 5     99.23 sec, wall time      0.80 sec
  HOMO = -0.133173212961319  LUMO = 0.125701769113717
                  Roothaan           | alpha              | beta
  Highest 2-occ = -0.491163317205302 | -0.498090580774526 | -0.484203653784368
  Lowest 0-occ =   0.125701769113717 |  0.122748875081294 |  0.128670917694463
  1-occ =         -0.133173212961319 | -0.343691681988236 | 0.0774543440394185
  Roothaan mo_energy =
[-0.70580531 -0.49116332 -0.49116332 -0.13317321  0.12570177  0.14809101
  0.14809102  0.21885065  0.21885065  0.22812021  0.29177028  0.29177028
  0.30701017  0.3638784   0.36387842  0.39316544  0.45751999  0.57783306
  0.57783306  0.66618575  0.70526409  0.70526411  0.75675579  0.83290249
  0.8329025   0.87018615  0.87018616  0.87549414  0.92057906  0.92057906
  0.92483528  1.02182174  1.0669506   1.09557907  1.09557917  1.10033587
  1.10033588  1.23505174  1.34655     1.34655007  1.39196985  1.45239976
  1.4896014   1.48960148  1.67094001  1.67094003  1.98195116  1.98858995
  2.024187    2.02418705  2.08396987  2.08396988  2.16971331  2.26171193
  2.26171194  2.29027901  2.29027901  2.2972516   2.30947468  2.38658238
  2.45352411  2.51331278  2.51331283  2.54365061  2.56039711  2.56039716
  2.60775865  2.63212864  2.63212865  2.76646908  2.76646912  2.82102786
  2.82102788  2.85847206  2.88090838  2.90118368  2.91649744  2.9164975
  3.09865936  3.09865944  3.45433141  3.45433141  3.46564719  3.53774334
  3.63360279  3.63360294  3.65556793  3.65556804  3.76197651  3.76197653
  3.88242142  3.97019452  5.24105212  5.43308772  5.43308779  6.18301852
  6.2104272   6.21042721  6.2309781   6.23097811  6.31190298  6.43818513
  6.46342328  6.46342341  6.53888041  6.54892236  6.61554353  6.61554367
  6.73440087  6.73440118  6.81417009  6.84827349  6.84827363  7.00387898
  7.003879    7.09061689  7.11768569  7.11768569  7.19992019  8.29201809
  8.32412978  8.32412978  8.39731504  8.39731512  8.45285624  8.58285282
  8.62118152  8.62118157  8.65750856  8.69054547  8.69054548  8.94242176
  8.9424218   8.9425897   9.00985008  9.00985022  9.12762783  9.1355628
  9.19666462  9.19666466  9.28554263  9.8547021   9.85470233 11.25980494]
E1 = -17.103661728201335  Ecoul = 6.691905768042435
cycle= 6 E= -5.46359379607448  delta_E= -1.05e-07  |g|= 0.000138  |ddm|= 0.00173
    CPU time for cycle= 6     61.88 sec, wall time      0.49 sec
  HOMO = -0.133100308654669  LUMO = 0.125706353067281
                  Roothaan           | alpha              | beta
  Highest 2-occ = -0.491147522143675 | -0.498093834599812 |  -0.48420099095697
  Lowest 0-occ =   0.125706353067281 |  0.122744761995992 |  0.128666451210845
  1-occ =         -0.133100308654669 | -0.343686533179084 | 0.0775281085040001
  Roothaan mo_energy =
[-0.70579176 -0.49114753 -0.49114752 -0.13310031  0.12570635  0.14810619
  0.1481062   0.21885868  0.21885868  0.22809359  0.29178718  0.29178718
  0.30700794  0.36389577  0.36389579  0.3931706   0.45752825  0.57784693
  0.57784694  0.66619669  0.70527334  0.70527335  0.75676197  0.83291989
  0.8329199   0.87020849  0.8702085   0.87550466  0.9205993   0.92059931
  0.9248486   1.02183521  1.06696918  1.09559258  1.09559268  1.10034927
  1.10034928  1.23507465  1.34656394  1.34656401  1.39200552  1.45241168
  1.48961641  1.48961648  1.67097426  1.67097428  1.98197094  1.98860364
  2.02421029  2.02421034  2.08398832  2.08398833  2.1697261   2.26172916
  2.26172917  2.29032322  2.29032323  2.29729112  2.30948976  2.38661511
  2.45355093  2.51334793  2.51334798  2.54368243  2.56040987  2.56040992
  2.60777597  2.63215797  2.63215798  2.76649534  2.76649538  2.8210416
  2.82104162  2.85850091  2.88093207  2.90121212  2.9165221   2.91652216
  3.09868117  3.09868124  3.45436149  3.45436149  3.46567311  3.53776057
  3.63362378  3.63362393  3.65558779  3.6555879   3.76200324  3.76200326
  3.88244024  3.97021424  5.24110411  5.43312319  5.43312327  6.18303181
  6.21044144  6.21044145  6.2309923   6.23099232  6.31191658  6.43819952
  6.46343684  6.46343697  6.53890198  6.54894136  6.61555944  6.61555958
  6.73441768  6.73441798  6.81418707  6.84829275  6.8482929   7.00389368
  7.0038937   7.09064106  7.11770953  7.11770954  7.19993826  8.29203684
  8.32414895  8.32414896  8.39733176  8.39733184  8.45287618  8.58287198
  8.62120116  8.62120121  8.65753016  8.69057076  8.69057077  8.94244223
  8.94244228  8.94260733  9.0098703   9.00987044  9.12765949  9.13558643
  9.19668556  9.19668559  9.28556313  9.85472422  9.85472446 11.25984429]
E1 = -17.10361860178068  Ecoul = 6.691862620371035
cycle= 7 E= -5.46359381732523  delta_E= -2.13e-08  |g|= 1.2e-05  |ddm|= 0.000644
    CPU time for cycle= 7    110.79 sec, wall time      0.87 sec
  HOMO = -0.133096206725892  LUMO = 0.125705410352174
                  Roothaan           | alpha              | beta
  Highest 2-occ =  -0.49114793228664 | -0.498092561490612 | -0.484203307501751
  Lowest 0-occ =   0.125705410352174 |  0.122745015941301 |  0.128666062410146
  1-occ =         -0.133096206725892 | -0.343724423170515 | 0.0775330942403901
  Roothaan mo_energy =
[-0.70578836 -0.49114794 -0.49114793 -0.13309621  0.12570541  0.14810504
  0.14810505  0.21885805  0.21885805  0.22808916  0.29178611  0.29178612
  0.30700698  0.36389519  0.36389521  0.39316987  0.45752573  0.57784594
  0.57784594  0.66619514  0.70527178  0.7052718   0.75675982  0.83291869
  0.8329187   0.87020793  0.87020794  0.87550283  0.92059843  0.92059844
  0.92484799  1.02183386  1.06696841  1.0955914   1.0955915   1.10034824
  1.10034825  1.23507325  1.34656261  1.34656267  1.39200498  1.45240946
  1.48961379  1.48961386  1.67097419  1.67097421  1.98197087  1.98860122
  2.02420821  2.02420826  2.08398623  2.08398624  2.16972385  2.26172761
  2.26172762  2.29032228  2.29032229  2.29728996  2.30948746  2.38661416
  2.45354968  2.51334663  2.51334668  2.54368033  2.56040764  2.56040769
  2.60777345  2.63215687  2.63215688  2.76649382  2.76649387  2.82103856
  2.82103858  2.85849902  2.88093007  2.90121039  2.91652019  2.91652026
  3.09867893  3.098679    3.45435983  3.45435984  3.46567134  3.53775801
  3.63362134  3.63362149  3.6555856   3.65558572  3.76200135  3.76200138
  3.88243784  3.97021134  5.2411042   5.43312107  5.43312115  6.18302719
  6.21043675  6.21043676  6.23098763  6.23098765  6.31191196  6.43819475
  6.46343222  6.46343235  6.53889699  6.54893675  6.61555473  6.61555487
  6.7344131   6.7344134   6.81418215  6.84828782  6.84828796  7.00388863
  7.00388865  7.09063565  7.11770429  7.11770429  7.19993324  8.29203056
  8.32414263  8.32414263  8.39732548  8.39732557  8.4528699   8.58286492
  8.62119434  8.62119439  8.65752402  8.69056398  8.69056399  8.94243586
  8.94243591  8.94260109  9.00986434  9.00986447  9.12765438  9.13558026
  9.19667959  9.19667962  9.28555713  9.85471755  9.85471779 11.25984311]
E1 = -17.103616326426557  Ecoul = 6.691860344874062
cycle= 8 E= -5.46359381746808  delta_E= -1.43e-10  |g|= 1.85e-06  |ddm|= 5.04e-05
    CPU time for cycle= 8     67.58 sec, wall time      0.53 sec
  HOMO = -0.133096072727741  LUMO = 0.125705454431554
                  Roothaan           | alpha              | beta
  Highest 2-occ = -0.491148033573969 | -0.498092661672343 | -0.484203405475599
  Lowest 0-occ =   0.125705454431554 |   0.12274493495585 |  0.128665959323224
  1-occ =         -0.133096072727741 | -0.343725787335928 | 0.0775338042766682
  Roothaan mo_energy =
[-0.70578889 -0.49114804 -0.49114803 -0.13309607  0.12570545  0.14810515
  0.14810516  0.21885809  0.2188581   0.22808941  0.2917862   0.2917862
  0.30700734  0.36389528  0.3638953   0.39316985  0.45752613  0.57784604
  0.57784604  0.66619528  0.70527187  0.70527189  0.75675991  0.83291882
  0.83291883  0.87020811  0.87020812  0.8755029   0.9205986   0.9205986
  0.92484811  1.02183397  1.0669686   1.09559152  1.09559162  1.10034834
  1.10034835  1.23507342  1.34656266  1.34656272  1.39200531  1.45240959
  1.48961388  1.48961395  1.67097446  1.67097448  1.98197086  1.98860132
  2.02420842  2.02420847  2.08398635  2.08398636  2.16972388  2.26172772
  2.26172773  2.29032265  2.29032266  2.29729023  2.30948762  2.38661439
  2.45354986  2.51334692  2.51334697  2.54368061  2.56040767  2.56040772
  2.60777358  2.63215702  2.63215703  2.76649399  2.76649403  2.82103866
  2.82103868  2.85849922  2.88093028  2.90121056  2.91652031  2.91652038
  3.09867909  3.09867916  3.4543601   3.45436011  3.46567151  3.5377581
  3.63362146  3.63362161  3.65558568  3.65558579  3.76200152  3.76200155
  3.88243795  3.97021143  5.24110441  5.43312128  5.43312135  6.18302732
  6.21043691  6.21043691  6.2309878   6.23098782  6.3119121   6.43819488
  6.46343233  6.46343246  6.53889716  6.54893694  6.61555485  6.61555499
  6.73441321  6.73441351  6.81418228  6.84828799  6.84828814  7.00388874
  7.00388876  7.09063585  7.11770448  7.11770449  7.1999334   8.29203075
  8.32414283  8.32414284  8.39732568  8.39732576  8.4528701   8.58286513
  8.62119454  8.62119459  8.65752423  8.69056422  8.69056423  8.94243604
  8.94243609  8.94260126  9.00986452  9.00986466  9.12765459  9.13558048
  9.19667976  9.19667979  9.28555729  9.85471774  9.85471797 11.25984322]
E1 = -17.103616643616476  Ecoul = 6.6918606620603605
Extra cycle  E= -5.4635938174717  delta_E= -3.62e-12  |g|= 6.48e-07  |ddm|= 9.84e-06
    CPU time for scf_cycle    971.70 sec, wall time      8.08 sec
    CPU time for SCF    971.74 sec, wall time      8.08 sec
converged SCF energy = -5.4635938174717
