#INFO: **** input file is /home/nkousuke/lustre/toBeSync/turboRVB/05turbo-genius-development/turbogenius_paper/04data/sanity_checks/03pyscf_HF_turbo_VMC_via_trexio/00open_boundary/results/ClO/pyscf-HF-workflow/run.py ****

from pyscf_wrapper import Pyscf_wrapper

# input variables
pyscf_chkfile="pyscf.chk"
structure_file="ClO.xyz"

# input variables
omp_num_threads=128
charge=0
spin=1
basis="ccecp-ccpvqz"
ecp="ccecp"
scf_method="HF"
dft_xc="NA"
solver_newton=False
MP2_flag=False
CCSD_flag=False
pyscf_output="out.pyscf"
twist_average=False
exp_to_discard=0.0
kpt=[0.0, 0.0, 0.0]
kpt_grid=[1, 1, 1]
smearing_method="fermi"
smearing_sigma=0.0

pyscf_calc=Pyscf_wrapper(
                        structure_file=structure_file,
                        chkfile=pyscf_chkfile,
                        )

pyscf_calc.run_pyscf(
                  omp_num_threads=omp_num_threads,
                  charge=charge,
                  spin=spin,
                  basis=basis,
                  ecp=ecp,
                  scf_method=scf_method,
                  dft_xc=dft_xc,
                  solver_newton=solver_newton,
                  MP2_flag=MP2_flag,
                  CCSD_flag=CCSD_flag,
                  pyscf_output=pyscf_output,
                  twist_average=twist_average,
                  exp_to_discard=exp_to_discard,
                  kpt=kpt,
                  kpt_grid=kpt_grid,
                  smearing_method=smearing_method,
                  smearing_sigma=smearing_sigma
                  )
                #INFO: ******************** input file end ********************


System: uname_result(system='Linux', node='spcc-145', release='5.4.0-66-generic', version='#74-Ubuntu SMP Wed Jan 27 22:54:38 UTC 2021', machine='x86_64', processor='x86_64')  Threads 128
Python 3.7.3 (default, Mar 27 2019, 22:11:17) 
[GCC 7.3.0]
numpy 1.20.1  scipy 1.7.3
Date: Mon Dec 19 18:03:48 2022
PySCF version 2.0.1
PySCF path  /home/nkousuke/application/anaconda3/lib/python3.7/site-packages/pyscf

[CONFIG] conf_file /home/nkousuke/.pyscf_conf.py
[INPUT] verbose = 5
[INPUT] max_memory = 506555.46484375 
[INPUT] num. atoms = 2
[INPUT] num. electrons = 13
[INPUT] charge = 0
[INPUT] spin (= nelec alpha-beta = 2S) = 1
[INPUT] symmetry False subgroup None
[INPUT] Mole.unit = A
[INPUT]  1 Cl     0.000000000000   0.000000000000   0.501920000000 AA    0.000000000000   0.000000000000   0.948491336442 Bohr
[INPUT]  2 O      0.000000000000   0.000000000000  -1.066580000000 AA    0.000000000000   0.000000000000  -2.015544089939 Bohr
[INPUT] ---------------- BASIS SET ---------------- 
[INPUT] l, kappa, [nprim/nctr], expnt,             c_1 c_2 ...
[INPUT] O
[INPUT] 0    0    [9    /1   ]  54.775216         -0.0012444
                                25.616801         0.010733
                                11.980245         0.0018889
                                6.992317          -0.1742537
                                2.620277          0.0017622
                                1.225429          0.3161846
                                0.577797          0.4512023
                                0.268022          0.3121534
                                0.125346          0.0511167
[INPUT] 0    0    [1    /1   ]  1.351771             1
[INPUT] 0    0    [1    /1   ]  0.843157             1
[INPUT] 0    0    [1    /1   ]  0.22438              1
[INPUT] 1    0    [9    /1   ]  22.217266         0.0104866
                                10.74755          0.0366435
                                5.315785          0.0803674
                                2.660761          0.162701
                                1.331816          0.2377791
                                0.678626          0.2811422
                                0.333673          0.2643189
                                0.167017          0.1466014
                                0.083598          0.0458145
[INPUT] 1    0    [1    /1   ]  1.106737             1
[INPUT] 1    0    [1    /1   ]  0.452364             1
[INPUT] 1    0    [1    /1   ]  0.148562             1
[INPUT] 2    0    [1    /1   ]  4.008867             1
[INPUT] 2    0    [1    /1   ]  1.344331             1
[INPUT] 2    0    [1    /1   ]  0.455711             1
[INPUT] 3    0    [1    /1   ]  2.763115             1
[INPUT] 3    0    [1    /1   ]  0.876289             1
[INPUT] 4    0    [1    /1   ]  1.759081             1
[INPUT] Cl
[INPUT] 0    0    [10   /1   ]  15.583847         0.002501
                                8.858485          -0.010046
                                5.035519          0.08581
                                2.862391          -0.290136
                                1.627098          -0.140314
                                0.924908          0.146839
                                0.525755          0.392484
                                0.29886           0.425061
                                0.169884          0.227195
                                0.096569          0.059828
[INPUT] 0    0    [1    /1   ]  1.038268             1
[INPUT] 0    0    [1    /1   ]  0.418863             1
[INPUT] 0    0    [1    /1   ]  0.16898              1
[INPUT] 1    0    [10   /1   ]  7.682894          -0.004609
                                4.507558          -0.001798
                                2.644587          -0.068614
                                1.551581          0.062352
                                0.910313          0.166337
                                0.534081          0.282292
                                0.313346          0.275967
                                0.18384           0.241328
                                0.107859          0.110223
                                0.063281          0.040289
[INPUT] 1    0    [1    /1   ]  2.626653             1
[INPUT] 1    0    [1    /1   ]  1.069041             1
[INPUT] 1    0    [1    /1   ]  0.435097             1
[INPUT] 2    0    [1    /1   ]  2.102692             1
[INPUT] 2    0    [1    /1   ]  0.763188             1
[INPUT] 2    0    [1    /1   ]  0.277005             1
[INPUT] 3    0    [1    /1   ]  1.139446             1
[INPUT] 3    0    [1    /1   ]  0.434852             1
[INPUT] 4    0    [1    /1   ]  0.844301             1

nuclear repulsion = 14.1698711244119
number of shells = 28
number of NR pGTOs = 176
number of NR cGTOs = 108
basis = ccecp-ccpvqz
ecp = ccecp
CPU time:         4.53


******** <class 'pyscf.scf.rohf.ROHF'> ********
method = ROHF-RHF
initial guess = minao
damping factor = 0
level_shift factor = 0
DIIS = <class 'pyscf.scf.diis.CDIIS'>
diis_start_cycle = 1
diis_space = 8
SCF conv_tol = 1e-09
SCF conv_tol_grad = None
SCF max_cycles = 200
direct_scf = True
direct_scf_tol = 1e-13
chkfile to save SCF result = pyscf.chk
max_memory 506555 MB (current use 106 MB)
num. doubly occ = 6  num. singly occ = 1
Set gradient conv threshold to 3.16228e-05
E1 = -78.82567512367595  Ecoul = 34.36017992449487
init E= -30.2956240747692
cond(S) = 4002.2914526013324
    CPU time for initialize scf    168.83 sec, wall time      1.52 sec
  HOMO = -0.308107433650307  LUMO = -0.00463553211686557
                  Roothaan           | alpha              | beta
  Highest 2-occ = -0.308107433650311 |  -0.30810743365031 |  -0.30810743365031
  Lowest 0-occ =  -0.00463553211686557 | -0.00463553211685912 | -0.00463553211685912
  1-occ =         -0.308107433650307 | -0.308107433650311 | -0.308107433650311
  Roothaan mo_energy =
[-1.62928564e+00 -1.02707205e+00 -6.19798048e-01 -5.81758798e-01
 -5.81758798e-01 -3.08107434e-01 -3.08107434e-01 -4.63553212e-03
  3.41261281e-01  4.55699738e-01  4.55699738e-01  4.98568825e-01
  5.14673551e-01  5.14673551e-01  5.25507974e-01  5.39805007e-01
  5.39805007e-01  6.53356138e-01  6.53356138e-01  8.81208969e-01
  1.07904659e+00  1.18920085e+00  1.18920085e+00  1.44575857e+00
  1.44575857e+00  1.44921200e+00  1.55940420e+00  1.55940420e+00
  1.65075243e+00  1.65075243e+00  1.69525889e+00  1.69525889e+00
  1.74446107e+00  1.74446107e+00  1.79153926e+00  1.94490318e+00
  1.94490318e+00  1.96556669e+00  2.28803236e+00  2.28803236e+00
  2.54058870e+00  2.79593942e+00  2.79593942e+00  2.94861267e+00
  3.36387886e+00  3.36387886e+00  3.37257854e+00  3.37257854e+00
  3.49702146e+00  3.49702146e+00  3.55202505e+00  3.78407974e+00
  3.96403098e+00  3.96403098e+00  4.01247796e+00  4.01247796e+00
  4.15894711e+00  4.15894711e+00  4.22165687e+00  4.32643567e+00
  4.32643567e+00  4.38440060e+00  4.38440060e+00  4.49143426e+00
  4.49143426e+00  4.59692142e+00  4.59692142e+00  4.60332399e+00
  4.61870595e+00  4.61870595e+00  4.90326553e+00  4.90326553e+00
  4.94054477e+00  5.06433486e+00  5.06433486e+00  5.28099034e+00
  5.63502330e+00  5.63502330e+00  6.93421544e+00  7.18370213e+00
  7.18370213e+00  8.02342716e+00  8.79666331e+00  8.79666331e+00
  8.80399594e+00  8.80399594e+00  8.96607702e+00  8.96607702e+00
  9.35227902e+00  9.35227902e+00  9.42453764e+00  1.13609240e+01
  1.13609240e+01  1.16840939e+01  1.16840939e+01  1.17667300e+01
  1.18397520e+01  1.18397520e+01  1.23160377e+01  1.23160377e+01
  1.27962061e+01  1.29150229e+01  1.29150229e+01  1.31111993e+01
  1.31111993e+01  1.34739079e+01  1.75381269e+01  3.26323381e+01]
E1 = -78.9260781157767  Ecoul = 34.43606353020944
cycle= 1 E= -30.3201434611554  delta_E= -0.0245  |g|= 0.421  |ddm|=  1.9
    CPU time for cycle= 1     68.08 sec, wall time      0.66 sec
  HOMO = -0.234936571639956  LUMO = 0.103483124159827
                  Roothaan           | alpha              | beta
  Highest 2-occ = -0.431549591293246 | -0.441156781076104 | -0.421942401510392
  Lowest 0-occ =   0.103483124159827 | 0.0933083987325068 |  0.113657849587141
  1-occ =         -0.234936571639956 | -0.479389289653192 | -0.0158824948963521
  Roothaan mo_energy =
[-1.42211277 -1.07497173 -0.65620347 -0.62593471 -0.624348   -0.43154959
 -0.23493657  0.10348312  0.38240574  0.43537086  0.43587386  0.45818019
  0.46633008  0.46936719  0.50529762  0.51098866  0.5132931   0.61725991
  0.62040962  0.87088597  1.13919958  1.22770859  1.22813789  1.43195862
  1.43345083  1.44418351  1.4854037   1.48540676  1.55045365  1.55066434
  1.61951762  1.63202098  1.70564809  1.70721629  1.74341822  1.99221862
  1.99888011  2.00157207  2.31205803  2.32452095  2.56469656  2.70160114
  2.7186633   2.82706304  3.3869164   3.38705684  3.46656041  3.4675602
  3.47692042  3.49219784  3.51493548  3.76599682  3.85983325  3.85983327
  3.93173369  3.93173486  4.21923878  4.21933921  4.22818284  4.25720983
  4.25721456  4.28998181  4.29031282  4.42670713  4.44572944  4.56616268
  4.58296143  4.58347895  4.70334058  4.71746482  4.76917576  4.79294728
  4.91736383  4.91777095  4.9707594   5.34054191  5.58515166  5.60287375
  6.95112714  7.38674019  7.40222061  8.19153899  8.96751933  8.96752536
  8.9792818   8.97928244  9.10532191  9.10573303  9.44663407  9.46963132
  9.51629135 11.17984576 11.19764475 11.64647105 11.91157676 11.91158151
 12.04570766 12.0457863  12.4877372  12.51069725 12.93445985 13.16414781
 13.16430436 13.34028537 13.36017729 13.68109424 17.3503055  32.91278483]
E1 = -78.60473006038771  Ecoul = 34.093702413285044
cycle= 2 E= -30.3411565226908  delta_E= -0.021  |g|= 0.42  |ddm|= 0.823
    CPU time for cycle= 2    108.26 sec, wall time      0.86 sec
  HOMO = -0.277273819767276  LUMO = 0.114522181108193
                  Roothaan           | alpha              | beta
  Highest 2-occ = -0.458137701426324 | -0.459243123069036 | -0.442293004992827
  Lowest 0-occ =   0.114522181108193 |  0.114747031262362 |  0.131219393965537
  1-occ =         -0.277273819767276 | -0.571191094993766 | -0.0258218535652263
  Roothaan mo_energy =
[-1.45609448 -1.05898229 -0.66281327 -0.65404465 -0.59966536 -0.4581377
 -0.27727382  0.11452218  0.37263476  0.46709195  0.46866908  0.48784689
  0.49145628  0.49720951  0.52127838  0.52202739  0.52560805  0.63978098
  0.6422647   0.88788366  1.10031653  1.20280019  1.20320716  1.44091272
  1.44928438  1.45132377  1.53979796  1.53980608  1.62454352  1.62468067
  1.66991362  1.67979295  1.73273764  1.73336336  1.77296166  1.95927494
  1.96569167  1.97771841  2.29138093  2.30371585  2.54657294  2.76490432
  2.77841989  2.9179939   3.37009047  3.37018013  3.41156857  3.41159649
  3.47399053  3.48913912  3.53972269  3.77001738  3.9413876   3.94138762
  3.98828835  3.98828888  4.20354304  4.20364772  4.23033735  4.29362482
  4.29366045  4.35740542  4.35741327  4.48213702  4.49746937  4.59134481
  4.59391359  4.59484831  4.6245055   4.64082344  4.86451446  4.8824993
  4.93640797  5.03135553  5.03165951  5.30027028  5.6104426   5.6267227
  6.93396638  7.22774742  7.24699382  8.05795704  8.8568395   8.8568498
  8.86378791  8.86378908  9.00386828  9.00446019  9.35769761  9.3854679
  9.43829746 11.31325395 11.32646599 11.73213437 11.75601851 11.75601868
 11.8942353  11.89436239 12.34269454 12.37091511 12.82429903 12.98393462
 12.98417483 13.15802135 13.18294423 13.51466382 17.48978783 32.68779406]
E1 = -79.08008786745214  Ecoul = 34.530975150492125
cycle= 3 E= -30.3792415925482  delta_E= -0.0381  |g|= 0.0724  |ddm|= 0.383
    CPU time for cycle= 3     97.63 sec, wall time      0.78 sec
  HOMO = -0.240379425833804  LUMO = 0.128659218769541
                  Roothaan           | alpha              | beta
  Highest 2-occ = -0.445437432466037 | -0.452185178673093 |  -0.43375763566101
  Lowest 0-occ =   0.128659218769541 |   0.12222718930149 |  0.139682484752041
  1-occ =         -0.240379425833804 | -0.526183917404047 | 0.0413507049837927
  Roothaan mo_energy =
[-1.42523417 -1.04599174 -0.64151686 -0.63551546 -0.58832189 -0.44543743
 -0.24037943  0.12865922  0.37761632  0.47226275  0.47397924  0.49601113
  0.49925107  0.5045611   0.5279002   0.5314509   0.53235359  0.64542399
  0.64696749  0.90172911  1.11020383  1.21628286  1.21667644  1.45280326
  1.45877057  1.46051083  1.54790656  1.54791276  1.63488789  1.63501484
  1.68209609  1.69103222  1.7410977   1.74155792  1.78634452  1.97243344
  1.97794414  1.9862176   2.3070985   2.31790411  2.5701597   2.77692058
  2.78881055  2.92132539  3.38834862  3.38844346  3.42850814  3.42855107
  3.49818096  3.51270801  3.55552098  3.79561253  3.95264133  3.95264134
  4.00022444  4.0002256   4.23184057  4.23198985  4.24033446  4.31045512
  4.31047669  4.3694966   4.36950481  4.50233565  4.51660535  4.60324054
  4.60345814  4.61601503  4.64566699  4.66180078  4.87269426  4.88885916
  4.9654793   5.04435481  5.04462787  5.31651031  5.62709304  5.6426327
  6.96050282  7.27370811  7.29324056  8.10552252  8.88688127  8.88689286
  8.89178776  8.89178908  9.03641482  9.03705686  9.39374752  9.42273118
  9.47506237 11.32793117 11.33970395 11.74982394 11.79925115 11.79925916
 11.9389431  11.93902092 12.38661092 12.41664883 12.8628762  13.03591953
 13.03619024 13.2089     13.23546176 13.56845173 17.5046269  32.75912071]
E1 = -78.86554786917097  Ecoul = 34.30967356824591
cycle= 4 E= -30.3860031765132  delta_E= -0.00676  |g|= 0.079  |ddm|= 0.171
    CPU time for cycle= 4     95.12 sec, wall time      0.79 sec
  HOMO = -0.244585560504651  LUMO = 0.127804037326098
                  Roothaan           | alpha              | beta
  Highest 2-occ = -0.449156018720463 | -0.458797460469594 | -0.442338275437903
  Lowest 0-occ =   0.127804037326098 |  0.117313357731346 |  0.133487997425807
  1-occ =         -0.244585560504651 | -0.585334725948683 | 0.0410077479885213
  Roothaan mo_energy =
[-1.4371791  -1.04655134 -0.65266524 -0.64558055 -0.58345672 -0.44915602
 -0.24458556  0.12780404  0.3731582   0.46638595  0.46707194  0.49986079
  0.50343771  0.50801517  0.52762487  0.53423742  0.53492943  0.64828885
  0.64848016  0.90027773  1.1024462   1.20797272  1.20842032  1.44965929
  1.45640429  1.45716382  1.55511888  1.55512405  1.64094953  1.64107413
  1.68391868  1.69153212  1.74314612  1.74350282  1.78571548  1.96625599
  1.97066029  1.98366143  2.30159843  2.31186943  2.56092369  2.78192465
  2.79161841  2.93024142  3.37956366  3.37968346  3.41329925  3.41335253
  3.49043083  3.50464063  3.55235278  3.78906756  3.96289194  3.96289195
  4.00450779  4.00450873  4.21510823  4.21519539  4.23737935  4.31206954
  4.31215247  4.37924876  4.37925285  4.50025113  4.51339178  4.60361589
  4.6037469   4.61131133  4.63545927  4.65212844  4.88194987  4.89452027
  4.95667045  5.05271587  5.0528446   5.31152768  5.62347519  5.63841018
  6.95129083  7.25194969  7.27422641  8.08888213  8.867026    8.86704307
  8.86951002  8.86951215  9.01844709  9.0192842   9.37523063  9.40810965
  9.45980411 11.33629308 11.34514061 11.75020761 11.77605045 11.77606626
 11.91856794 11.91873581 12.36668166 12.40098775 12.84907172 13.01314508
 13.01350254 13.18713603 13.21770425 13.5505923  17.51039379 32.73726061]
E1 = -78.88439333640954  Ecoul = 34.32231682760137
cycle= 5 E= -30.3922053843963  delta_E= -0.0062  |g|= 0.0464  |ddm|= 0.183
    CPU time for cycle= 5     53.19 sec, wall time      0.42 sec
  HOMO = -0.259162241576846  LUMO = 0.127187074787913
                  Roothaan           | alpha              | beta
  Highest 2-occ = -0.446280265850688 | -0.455693746399419 | -0.440928308569007
  Lowest 0-occ =   0.127187074787913 |   0.11885453506475 |   0.13424042657966
  1-occ =         -0.259162241576846 | -0.617838423906159 | 0.0761931421009989
  Roothaan mo_energy =
[-1.44032246 -1.04442211 -0.65648351 -0.65008077 -0.55476539 -0.44628027
 -0.25916224  0.12718707  0.36983461  0.46022196  0.46324793  0.5045927
  0.50887608  0.51195746  0.52936756  0.53575845  0.53885628  0.65137798
  0.65169825  0.90032261  1.09773562  1.20326328  1.20377214  1.44820868
  1.45455234  1.45759086  1.5632495   1.56325476  1.64858146  1.64868566
  1.6880865   1.69493841  1.74726787  1.74759627  1.78750908  1.96265463
  1.96789187  1.98388652  2.29896368  2.31029222  2.55652718  2.78947108
  2.79768621  2.93888435  3.37475549  3.3749028   3.40272207  3.40279077
  3.48718769  3.50171154  3.553485    3.78775325  3.97554303  3.97554303
  4.01087174  4.01087446  4.20547996  4.20565559  4.23708117  4.31757263
  4.31774467  4.39275004  4.3927507   4.5015727   4.51427268  4.60622306
  4.60631313  4.61190437  4.63195994  4.64951399  4.89261464  4.90142035
  4.95513178  5.06627536  5.06631385  5.31178769  5.62385176  5.63886293
  6.94887532  7.24180407  7.26788166  8.08389802  8.85449529  8.85449853
  8.85506309  8.85508758  9.0087218   9.00980024  9.36496777  9.40244885
  9.45319876 11.35124488 11.35692861 11.75633702 11.76351602 11.76354613
 11.90983434 11.91012873 12.35882689 12.39734347 12.84636573 13.00352755
 13.00397201 13.17934727 13.21382668 13.54699255 17.5232273  32.73377013]
E1 = -78.90060370932957  Ecoul = 34.33637068690028
cycle= 6 E= -30.3943618980174  delta_E= -0.00216  |g|= 0.00889  |ddm|= 0.176
    CPU time for cycle= 6     98.05 sec, wall time      0.77 sec
  HOMO = -0.25580958144575  LUMO = 0.126971095687599
                  Roothaan           | alpha              | beta
  Highest 2-occ = -0.446670148544742 | -0.453844573004885 | -0.439617287103991
  Lowest 0-occ =   0.126971095687599 |  0.119227014083442 |  0.134287256715707
  1-occ =          -0.25580958144575 | -0.616417795760501 |  0.104481633252878
  Roothaan mo_energy =
[-1.44027813 -1.04503029 -0.6556958  -0.64957117 -0.56120482 -0.44667015
 -0.25580958  0.1269711   0.37051165  0.46064952  0.4640518   0.50360092
  0.50756071  0.51081513  0.52911851  0.53547162  0.5378715   0.65020874
  0.65106651  0.90005988  1.09846625  1.20374187  1.2042126   1.4482542
  1.45459905  1.45747805  1.56151316  1.56151618  1.64681715  1.64692178
  1.68678619  1.69371877  1.74615179  1.74649612  1.78662965  1.96284458
  1.96854705  1.98393346  2.29895966  2.31050442  2.55661588  2.78757582
  2.79603008  2.93754369  3.37524881  3.3753895   3.40427099  3.40435168
  3.4872556   3.50171543  3.55257237  3.78737019  3.97300465  3.97300465
  4.00920381  4.00920792  4.20707668  4.2072621   4.23710758  4.31555149
  4.31572326  4.38996055  4.3899626   4.50091779  4.51349038  4.60566818
  4.60575201  4.61111689  4.63216695  4.6495943   4.89070337  4.89980168
  4.95496879  5.06322563  5.06327372  5.31168684  5.62302441  5.63801503
  6.94852124  7.24348362  7.26897624  8.08468122  8.8569316   8.85693449
  8.85706386  8.85708636  9.01041203  9.01142767  9.36689056  9.40341491
  9.45449941 11.34784509 11.35378528 11.75453421 11.76556318 11.76559757
 11.91145586 11.91171796 12.36062665 12.39800796 12.8467363  13.00510102
 13.00551755 13.18090803 13.21432159 13.54780126 17.51974277 32.73447695]
E1 = -78.91152654800655  Ecoul = 34.347296657132475
cycle= 7 E= -30.3943587664622  delta_E= 3.13e-06  |g|= 0.00594  |ddm|= 0.056
    CPU time for cycle= 7     56.36 sec, wall time      0.45 sec
  HOMO = -0.256724404814099  LUMO = 0.126756850363381
                  Roothaan           | alpha              | beta
  Highest 2-occ = -0.446691157691789 | -0.454076080326013 | -0.439781481221066
  Lowest 0-occ =   0.126756850363381 |  0.119195413992048 |  0.134322668450643
  1-occ =         -0.256724404814099 | -0.618071471019027 |  0.100798499039686
  Roothaan mo_energy =
[-1.44159115 -1.04510327 -0.65690941 -0.65120566 -0.56035791 -0.44669116
 -0.2567244   0.12675685  0.36988536  0.45996839  0.46338969  0.50409766
  0.50821574  0.51126944  0.52926827  0.53606251  0.53832047  0.65055672
  0.6513738   0.89968333  1.09748813  1.20275016  1.20323276  1.44779381
  1.45402344  1.45723034  1.56263465  1.56263525  1.64776669  1.64786673
  1.68719786  1.69394819  1.74658097  1.74691974  1.78663562  1.96201701
  1.96771439  1.98357605  2.29825901  2.30986289  2.55551119  2.78844961
  2.79664326  2.93839814  3.37421474  3.37436076  3.40230862  3.40238758
  3.48642185  3.50092643  3.55238355  3.78665255  3.9747453   3.9747453
  4.00994888  4.00995258  4.2047927   4.20499143  4.23658983  4.31613349
  4.3163171   4.39172423  4.39172483  4.50054341  4.51307201  4.60564708
  4.60571931  4.61065417  4.63109515  4.64859102  4.89190638  4.90042638
  4.95397111  5.06491203  5.06495051  5.31105126  5.62268592  5.63765438
  6.94753317  7.24035763  7.26641996  8.08249204  8.85382611  8.85382919
  8.85452025  8.85454395  9.0082813   9.00933563  9.36472621  9.40193197
  9.45286544 11.34960115 11.35506968 11.75470729 11.76215804 11.76219218
 11.90875965 11.90904627 12.35815636 12.39618939 12.84521089 13.00173119
 13.00216243 13.17794689 13.21197152 13.54558328 17.52114775 32.7312602 ]
E1 = -78.90600007178948  Ecoul = 34.34169418587209
cycle= 8 E= -30.3944347615055  delta_E= -7.6e-05  |g|= 0.00256  |ddm|= 0.044
    CPU time for cycle= 8     86.46 sec, wall time      0.69 sec
  HOMO = -0.25686865342214  LUMO = 0.126728325002775
                  Roothaan           | alpha              | beta
  Highest 2-occ = -0.446737823356432 | -0.453726500612453 | -0.439569671708975
  Lowest 0-occ =   0.126728325002775 |  0.119232703233345 |  0.134244191497842
  1-occ =          -0.25686865342214 | -0.618998148920214 |  0.105486772845447
  Roothaan mo_energy =
[-1.44124368 -1.04516547 -0.65646786 -0.65089342 -0.56050189 -0.44673782
 -0.25686865  0.12672833  0.37011694  0.46032273  0.46369367  0.5038591
  0.5079241   0.51103603  0.52918998  0.53596817  0.53808197  0.65031851
  0.65120887  0.89962796  1.09779331  1.20303863  1.20352323  1.44788125
  1.45414454  1.45727318  1.56219977  1.56220025  1.64736779  1.64746819
  1.6869748   1.69376222  1.74636074  1.74670195  1.78650399  1.96230942
  1.96800385  1.98365614  2.29844782  2.31003277  2.55576253  2.78805783
  2.79632957  2.93793284  3.37452164  3.3746654   3.40294396  3.40302258
  3.48662496  3.50113205  3.55234753  3.78677891  3.97413069  3.97413069
  4.00959085  4.00959454  4.20549967  4.20569041  4.236683    4.3158172
  4.31599781  4.39109618  4.39109721  4.50054534  4.51307655  4.60554384
  4.60561837  4.61067231  4.63140073  4.64889195  4.89136357  4.90003609
  4.95416561  5.06428713  5.06432808  5.3112187   5.62266927  5.63765391
  6.94774901  7.24123862  7.26713845  8.08311613  8.85473428  8.8547373
  8.85533976  8.85536314  9.00901931  9.01006324  9.36548173  9.40248417
  9.45346155 11.34891685 11.35452411 11.75444773 11.76305108 11.76308454
 11.90957207 11.90984909 12.35897472 12.39680818 12.84572537 13.00259748
 13.00302485 13.17882964 13.2126674  13.54629295 17.5205299  32.73206903]
E1 = -78.90893348315774  Ecoul = 34.344612765543204
cycle= 9 E= -30.3944495932027  delta_E= -1.48e-05  |g|= 0.000504  |ddm|= 0.0156
    CPU time for cycle= 9    140.03 sec, wall time      1.10 sec
  HOMO = -0.25686629966851  LUMO = 0.126756266934666
                  Roothaan           | alpha              | beta
  Highest 2-occ = -0.446698884877306 | -0.453826758035144 | -0.439608932238871
  Lowest 0-occ =   0.126756266934666 |  0.119230449912365 |  0.134274661763698
  1-occ =          -0.25686629966851 | -0.618002885709674 |  0.104126285788875
  Roothaan mo_energy =
[-1.44127586 -1.0451185  -0.65649661 -0.65095736 -0.56038591 -0.44669888
 -0.2568663   0.12675627  0.37009148  0.46029888  0.46365771  0.5039047
  0.50798981  0.5110893   0.52922162  0.53600866  0.53814007  0.65036856
  0.65124174  0.8996445   1.09775165  1.20300006  1.20348461  1.44788087
  1.45413839  1.45729754  1.56228366  1.56228396  1.64745763  1.64755805
  1.68704015  1.69381885  1.7464214   1.74676219  1.78652991  1.96231166
  1.96798685  1.98367595  2.29845616  2.3100281   2.55572815  2.78815735
  2.7964139   2.93806566  3.37449048  3.37463453  3.40285746  3.40293582
  3.48661195  3.50111754  3.55237443  3.78678183  3.97426794  3.97426794
  4.00967069  4.00967437  4.20542095  4.20561208  4.23670891  4.315886
  4.31606721  4.39125876  4.39125972  4.50057504  4.51310686  4.60560636
  4.60567961  4.61069442  4.63139121  4.64888346  4.89150535  4.90015373
  4.95417144  5.06445993  5.06450053  5.31124512  5.62270125  5.63768415
  6.94774216  7.24114905  7.26706748  8.08306766  8.8545984   8.85460143
  8.85523645  8.85525989  9.00894038  9.00998611  9.36540527  9.40244106
  9.453418   11.34911035 11.35469897 11.75455841 11.76292424 11.76295766
 11.90949084 11.90976949 12.35891023 12.39678038 12.84571753 13.00249372
 13.00292166 13.17875504 13.21262696 13.54626213 17.52070979 32.73201322]
E1 = -78.90851639134303  Ecoul = 34.34419515567784
cycle= 10 E= -30.3944501112533  delta_E= -5.18e-07  |g|= 7.66e-05  |ddm|= 0.0026
    CPU time for cycle= 10     57.39 sec, wall time      0.58 sec
  HOMO = -0.256867575823121  LUMO = 0.126743915078625
                  Roothaan           | alpha              | beta
  Highest 2-occ = -0.446712695379285 | -0.453812922289154 | -0.439604861155742
  Lowest 0-occ =   0.126743915078625 |  0.119227035863592 |  0.134264093409811
  1-occ =         -0.256867575823121 | -0.618120116133752 |  0.104399451243428
  Roothaan mo_energy =
[-1.44127173 -1.04513419 -0.65648822 -0.65096719 -0.56041237 -0.4467127
 -0.25686758  0.12674392  0.3700931   0.46031429  0.46366839  0.50388761
  0.50797106  0.51107433  0.52921385  0.5359946   0.53812566  0.65035729
  0.65122689  0.89963166  1.09775857  1.2030076   1.20349171  1.44787792
  1.4541364   1.45728946  1.56226212  1.56226244  1.64743201  1.64753254
  1.68701863  1.69380008  1.74640475  1.74674567  1.78651628  1.96231719
  1.96798993  1.98366823  2.29845705  2.31002699  2.55572774  2.78812956
  2.79638928  2.93802659  3.37449508  3.3746391   3.40287617  3.40295458
  3.48660998  3.50111461  3.55236176  3.78677252  3.97423528  3.97423528
  4.0096468   4.00965048  4.20543504  4.20562613  4.23670086  4.31586247
  4.3160435   4.39121959  4.39122057  4.50055899  4.5130914   4.60558774
  4.60566117  4.61067929  4.63139174  4.64888438  4.89146368  4.90012055
  4.95416066  5.0644169   5.06445765  5.31123847  5.62268659  5.63767042
  6.94773522  7.2411608   7.26707248  8.08306976  8.85462097  8.854624
  8.8552579   8.85528133  9.00895943  9.01000467  9.36542322  9.40245144
  9.45342842 11.34905838 11.35465382 11.75452172 11.76293601 11.76296944
 11.90950334 11.90978167 12.35892473 12.39678761 12.84572144 13.0024995
 13.0029272  13.17876647 13.21263163 13.54626733 17.52065932 32.73200527]
E1 = -78.90862319684157  Ecoul = 34.344301952321736
cycle= 11 E= -30.394450120108  delta_E= -8.85e-09  |g|= 2.22e-05  |ddm|= 0.000443
    CPU time for cycle= 11    127.28 sec, wall time      1.00 sec
  HOMO = -0.256860431521127  LUMO = 0.126747745905175
                  Roothaan           | alpha              | beta
  Highest 2-occ = -0.446707722270418 | -0.453813089970263 | -0.439603427085914
  Lowest 0-occ =   0.126747745905175 |  0.119229056338591 |  0.134266886776287
  1-occ =         -0.256860431521127 | -0.618091134104568 |  0.104369544052074
  Roothaan mo_energy =
[-1.44126887 -1.04512906 -0.65648526 -0.6509657  -0.56040951 -0.44670772
 -0.25686043  0.12674775  0.37009337  0.46031293  0.46366819  0.50389114
  0.50797524  0.51107797  0.52921663  0.53599704  0.53813027  0.65036098
  0.65122921  0.89963544  1.09775874  1.20300783  1.20349194  1.44788002
  1.45413834  1.45729285  1.5622664   1.56226671  1.64743752  1.64753804
  1.68702405  1.69380536  1.74640908  1.74674998  1.78652002  1.96231845
  1.96799204  1.98367155  2.29845872  2.31002956  2.55573009  2.78813597
  2.7963954   2.93803536  3.37449656  3.37464058  3.4028751   3.4029535
  3.48661297  3.50111753  3.55236614  3.78677693  3.97424219  3.97424219
  4.00965225  4.00965593  4.20543601  4.20562713  4.23670517  4.31586822
  4.31604927  4.39122853  4.3912295   4.50056424  4.51309671  4.60559336
  4.60566677  4.61068437  4.6313951   4.64888783  4.89147259  4.90012898
  4.95416597  5.06442715  5.06446789  5.31124344  5.62269185  5.63767555
  6.94773962  7.24116348  7.26707629  8.08307461  8.85461948  8.85462251
  8.8552578   8.85528122  9.00896044  9.01000572  9.36542491  9.40245385
  9.45343119 11.34907064 11.35466539 11.75453195 11.76293712 11.76297054
 11.90950612 11.90978449 12.35892854 12.39679187 12.84572677 13.00250288
 13.0029306  13.17877123 13.21263684 13.54627336 17.52067157 32.73201364]
E1 = -78.90859314658053  Ecoul = 34.34427190123436
cycle= 12 E= -30.3944501209343  delta_E= -8.26e-10  |g|= 3.92e-06  |ddm|= 8.33e-05
    CPU time for cycle= 12     49.10 sec, wall time      0.43 sec
  HOMO = -0.256861528544201  LUMO = 0.126746848071958
                  Roothaan           | alpha              | beta
  Highest 2-occ =  -0.44670873189325 |  -0.45381335247891 | -0.439604111307583
  Lowest 0-occ =   0.126746848071958 |  0.119228021958328 |  0.134265674185599
  1-occ =         -0.256861528544201 | -0.618100401673837 |  0.104376562255351
  Roothaan mo_energy =
[-1.44127073 -1.04513025 -0.65648657 -0.65096719 -0.5604117  -0.44670873
 -0.25686153  0.12674685  0.37009302  0.46031258  0.46366793  0.50389052
  0.50797451  0.51107727  0.52921613  0.53599629  0.53812967  0.65036051
  0.65122864  0.89963444  1.09775811  1.20300706  1.20349118  1.44787922
  1.45413752  1.45729203  1.56226581  1.56226612  1.64743658  1.64753711
  1.6870229   1.69380425  1.74640826  1.74674916  1.78651906  1.96231738
  1.96799115  1.98367068  2.29845761  2.3100286   2.55572874  2.78813479
  2.79639423  2.93803417  3.37449549  3.37463951  3.40287409  3.40295248
  3.48661164  3.50111617  3.55236488  3.78677533  3.97424122  3.97424122
  4.00965124  4.00965493  4.20543426  4.20562537  4.23670407  4.31586691
  4.31604796  4.39122716  4.39122813  4.50056266  4.51309511  4.60559219
  4.6056656   4.61068269  4.6313936   4.64888631  4.89147128  4.90012767
  4.95416396  5.06442547  5.0644662   5.31124197  5.62269044  5.63767409
  6.9477378   7.24116058  7.26707349  8.08307182  8.8546178   8.85462082
  8.85525611  8.85527953  9.00895871  9.01000399  9.3654231   9.40245195
  9.45342928 11.34906858 11.35466326 11.75452975 11.7629345  11.76296792
 11.90950349 11.90978186 12.35892599 12.39678919 12.84572427 13.00249966
 13.00292738 13.17876808 13.21263358 13.54627013 17.52066933 32.73200921]
E1 = -78.90859390630732  Ecoul = 34.34427266094395
Extra cycle  E= -30.3944501209515  delta_E= -1.72e-11  |g|= 2.06e-06  |ddm|= 1.05e-05
    CPU time for scf_cycle   1303.28 sec, wall time     10.81 sec
    CPU time for SCF   1303.34 sec, wall time     10.81 sec
converged SCF energy = -30.3944501209515
