#INFO: **** input file is /home/nkousuke/lustre/toBeSync/turboRVB/05turbo-genius-development/turbogenius_paper/04data/sanity_checks/02pyscf_prep_LDA_via_trexio/00open_boundary/results/HCN/pyscf-LDA-workflow/run.py ****

from pyscf_wrapper import Pyscf_wrapper

# input variables
pyscf_chkfile="pyscf.chk"
structure_file="HCN.xyz"

# input variables
omp_num_threads=128
charge=0
spin=0
basis="ccecp-ccpvqz"
ecp="ccecp"
scf_method="DFT"
dft_xc="LDA_X,LDA_C_PZ"
solver_newton=False
MP2_flag=False
CCSD_flag=False
pyscf_output="out.pyscf"
twist_average=False
exp_to_discard=0.1
kpt=[0.0, 0.0, 0.0]
kpt_grid=[1, 1, 1]
smearing_method="fermi"
smearing_sigma=0.0

pyscf_calc=Pyscf_wrapper(
                        structure_file=structure_file,
                        chkfile=pyscf_chkfile,
                        )

pyscf_calc.run_pyscf(
                  omp_num_threads=omp_num_threads,
                  charge=charge,
                  spin=spin,
                  basis=basis,
                  ecp=ecp,
                  scf_method=scf_method,
                  dft_xc=dft_xc,
                  solver_newton=solver_newton,
                  MP2_flag=MP2_flag,
                  CCSD_flag=CCSD_flag,
                  pyscf_output=pyscf_output,
                  twist_average=twist_average,
                  exp_to_discard=exp_to_discard,
                  kpt=kpt,
                  kpt_grid=kpt_grid,
                  smearing_method=smearing_method,
                  smearing_sigma=smearing_sigma
                  )
                #INFO: ******************** input file end ********************


System: uname_result(system='Linux', node='spcc-205', release='5.4.0-66-generic', version='#74-Ubuntu SMP Wed Jan 27 22:54:38 UTC 2021', machine='x86_64', processor='x86_64')  Threads 128
Python 3.7.3 (default, Mar 27 2019, 22:11:17) 
[GCC 7.3.0]
numpy 1.20.1  scipy 1.7.3
Date: Thu Dec 22 06:18:27 2022
PySCF version 2.0.1
PySCF path  /home/nkousuke/application/anaconda3/lib/python3.7/site-packages/pyscf

[CONFIG] conf_file /home/nkousuke/.pyscf_conf.py
[INPUT] verbose = 5
[INPUT] max_memory = 507472.5234375 
[INPUT] num. atoms = 3
[INPUT] num. electrons = 10
[INPUT] charge = 0
[INPUT] spin (= nelec alpha-beta = 2S) = 0
[INPUT] symmetry False subgroup None
[INPUT] Mole.unit = A
[INPUT]  1 C      0.000000000000   0.000000000000  -0.438000000000 AA    0.000000000000   0.000000000000  -0.827700042559 Bohr
[INPUT]  2 H      0.000000000000   0.000000000000  -1.502960000000 AA    0.000000000000   0.000000000000  -2.840182776176 Bohr
[INPUT]  3 N      0.000000000000   0.000000000000   0.715240000000 AA    0.000000000000   0.000000000000   1.351607713334 Bohr
[INPUT] ---------------- BASIS SET ---------------- 
[INPUT] l, kappa, [nprim/nctr], expnt,             c_1 c_2 ...
[INPUT] C
[INPUT] 0    0    [9    /1   ]  13.073594         0.0051583
                                6.541187          0.0603424
                                4.573411          -0.1978471
                                1.637494          -0.081034
                                0.819297          0.2321726
                                0.409924          0.2914643
                                0.2313            0.4336405
                                0.102619          0.213194
                                0.051344          0.0049848
[INPUT] 0    0    [1    /1   ]  0.846879             1
[INPUT] 0    0    [1    /1   ]  0.269659             1
[INPUT] 0    0    [1    /1   ]  0.109576             1
[INPUT] 1    0    [9    /1   ]  9.934169          0.0209076
                                3.886955          0.0572698
                                1.871016          0.1122682
                                0.935757          0.2130082
                                0.468003          0.2835815
                                0.239473          0.3011207
                                0.117063          0.2016934
                                0.058547          0.0453575
                                0.029281          0.0029775
[INPUT] 1    0    [1    /1   ]  0.804681             1
[INPUT] 1    0    [1    /1   ]  0.313254             1
[INPUT] 1    0    [1    /1   ]  0.105389             1
[INPUT] 2    0    [1    /1   ]  2.01376              1
[INPUT] 2    0    [1    /1   ]  0.684884             1
[INPUT] 2    0    [1    /1   ]  0.240171             1
[INPUT] 3    0    [1    /1   ]  0.457302             1
[INPUT] 3    0    [1    /1   ]  1.32493              1
[INPUT] 4    0    [1    /1   ]  1.03418              1
[INPUT] N
[INPUT] 0    0    [9    /1   ]  42.693822         -0.0009357
                                19.963207         0.0063295
                                9.3345971         0.0105038
                                4.9278187         -0.1653735
                                2.04092           -0.0005352
                                0.96708           0.2452063
                                0.476131          0.4582128
                                0.211443          0.3641224
                                0.098869          0.0620406
[INPUT] 0    0    [1    /1   ]  1.625001             1
[INPUT] 0    0    [1    /1   ]  0.310826             1
[INPUT] 0    0    [1    /1   ]  0.135764             1
[INPUT] 1    0    [9    /1   ]  18.925871         0.0073505
                                9.225603          0.0292844
                                4.581431          0.0652168
                                2.300164          0.1405153
                                1.154825          0.2328188
                                0.582039          0.2989556
                                0.290535          0.2802507
                                0.145867          0.1527995
                                0.073234          0.0355475
[INPUT] 1    0    [1    /1   ]  1.02075              1
[INPUT] 1    0    [1    /1   ]  0.413103             1
[INPUT] 1    0    [1    /1   ]  0.140736             1
[INPUT] 2    0    [1    /1   ]  3.028459             1
[INPUT] 2    0    [1    /1   ]  1.009895             1
[INPUT] 2    0    [1    /1   ]  0.346233             1
[INPUT] 3    0    [1    /1   ]  2.024747             1
[INPUT] 3    0    [1    /1   ]  0.691129             1
[INPUT] 4    0    [1    /1   ]  1.357512             1
[INPUT] H
[INPUT] 0    0    [8    /1   ]  23.843185         0.0041149
                                10.212443         0.0104644
                                4.374164          0.0280111
                                1.873529          0.0758862
                                0.802465          0.1821062
                                0.343709          0.3485214
                                0.147217          0.3782313
                                0.063055          0.1164241
[INPUT] 0    0    [1    /1   ]  0.081856             1
[INPUT] 0    0    [1    /1   ]  0.233254             1
[INPUT] 0    0    [1    /1   ]  0.664673             1
[INPUT] 1    0    [1    /1   ]  0.284469             1
[INPUT] 1    0    [1    /1   ]  0.847159             1
[INPUT] 1    0    [1    /1   ]  2.522868             1
[INPUT] 2    0    [1    /1   ]  0.665279             1
[INPUT] 2    0    [1    /1   ]  2.048739             1
[INPUT] 3    0    [1    /1   ]  1.42146              1

nuclear repulsion = 12.3576284910304
number of shells = 38
number of NR pGTOs = 209
number of NR cGTOs = 138
basis = ccecp-ccpvqz
ecp = ccecp
CPU time:         5.43


******** <class 'pyscf.df.df_jk.density_fit.<locals>.DFHF'> ********
method = DFHF-RKS-RHF
initial guess = minao
damping factor = 0
level_shift factor = 0
DIIS = <class 'pyscf.scf.diis.CDIIS'>
diis_start_cycle = 1
diis_space = 8
SCF conv_tol = 1e-09
SCF conv_tol_grad = None
SCF max_cycles = 200
direct_scf = True
direct_scf_tol = 1e-13
chkfile to save SCF result = pyscf.chk
max_memory 507472 MB (current use 107 MB)
XC library pyscf.dft.libxc version 5.1.7
    S. Lehtola, C. Steigemann, M. J. Oliveira, and M. A. Marques, SoftwareX 7, 1 (2018)
XC functionals = LDA_X,LDA_C_PZ
    P. A. M. Dirac, Math. Proc. Cambridge Philos. Soc. 26, 376 (1930)
    F. Bloch, Z. Phys. 57, 545 (1929)
    J. P. Perdew and A. Zunger, Phys. Rev. B 23, 5048 (1981)
radial grids: 
    Treutler-Ahlrichs [JCP 102, 346 (1995); DOI:10.1063/1.469408] (M4) radial grids
    
becke partition: Becke, JCP 88, 2547 (1988); DOI:10.1063/1.454033
pruning grids: <function nwchem_prune at 0x152e22cde730>
grids dens level: 3
symmetrized grids: False
atomic radii adjust function: <function treutler_atomic_radii_adjust at 0x152e22cde620>
small_rho_cutoff = 1e-07
Set gradient conv threshold to 3.16228e-05
atom C rad-grids = 75, ang-grids = [ 50  50  50  50  50  50  50  50  50  50  50  50  50  50  50  50  50  50
  50  50  50  50  50  86  86  86  86  86  86  86  86  86  86 266 266 266
 266 266 266 266 302 302 302 302 302 302 302 302 302 302 302 302 302 302
 302 302 302 302 302 302 266 266 266 266 266 266 266 266 266 266 266 266
 266 266 266]
atom H rad-grids = 50, ang-grids = [ 50  50  50  50  50  50  50  50  50  50  50  50  50  50  86  86  86  86
 266 266 266 266 302 302 302 302 302 302 302 302 302 302 302 302 302 266
 266 266 266 266 266 266 266 266 266 266 266 266 266 266]
atom N rad-grids = 75, ang-grids = [ 50  50  50  50  50  50  50  50  50  50  50  50  50  50  50  50  50  50
  50  50  50  50  50  86  86  86  86  86  86  86  86  86 266 266 266 266
 266 266 266 302 302 302 302 302 302 302 302 302 302 302 302 302 302 302
 302 302 302 302 266 266 266 266 266 266 266 266 266 266 266 266 266 266
 266 266 266]
tot grids = 37972
Drop grids 2521
    CPU time for setting up grids     33.15 sec, wall time      0.27 sec
nelec by numeric integration = 9.999961183605938
    CPU time for vxc     36.29 sec, wall time      0.29 sec
Even tempered Gaussians are generated as DF auxbasis for  C N H
  ETB auxbasis for C  [[0, [13.144064, 1]], [0, [6.572032, 1]], [0, [3.286016, 1]], [0, [1.643008, 1]], [0, [0.821504, 1]], [0, [0.410752, 1]], [0, [0.205376, 1]], [0, [0.102688, 1]], [1, [19.852159834527225, 1]], [1, [9.926079917263612, 1]], [1, [4.963039958631806, 1]], [1, [2.481519979315903, 1]], [1, [1.2407599896579515, 1]], [1, [0.6203799948289758, 1]], [1, [0.3101899974144879, 1]], [1, [0.15509499870724394, 1]], [1, [0.07754749935362197, 1]], [2, [14.991872, 1]], [2, [7.495936, 1]], [2, [3.747968, 1]], [2, [1.873984, 1]], [2, [0.936992, 1]], [2, [0.468496, 1]], [2, [0.234248, 1]], [2, [0.117124, 1]], [2, [0.058562, 1]], [3, [5.36701994787573, 1]], [3, [2.683509973937865, 1]], [3, [1.3417549869689325, 1]], [3, [0.6708774934844662, 1]], [3, [0.3354387467422331, 1]], [3, [0.16771937337111656, 1]], [4, [3.842736, 1]], [4, [1.921368, 1]], [4, [0.960684, 1]], [4, [0.480342, 1]]]
  ETB auxbasis for N  [[0, [25.310464, 1]], [0, [12.655232, 1]], [0, [6.327616, 1]], [0, [3.163808, 1]], [0, [1.581904, 1]], [0, [0.790952, 1]], [0, [0.395476, 1]], [0, [0.197738, 1]], [1, [21.783437498876435, 1]], [1, [10.891718749438217, 1]], [1, [5.445859374719109, 1]], [1, [2.7229296873595543, 1]], [1, [1.3614648436797772, 1]], [1, [0.6807324218398886, 1]], [1, [0.3403662109199443, 1]], [1, [0.17018310545997214, 1]], [2, [37.495808, 1]], [2, [18.747904, 1]], [2, [9.373952, 1]], [2, [4.686976, 1]], [2, [2.343488, 1]], [2, [1.171744, 1]], [2, [0.585872, 1]], [2, [0.292936, 1]], [2, [0.146468, 1]], [3, [10.191088692093302, 1]], [3, [5.095544346046651, 1]], [3, [2.5477721730233256, 1]], [3, [1.2738860865116628, 1]], [3, [0.6369430432558314, 1]], [3, [0.3184715216279157, 1]], [4, [5.539728, 1]], [4, [2.769864, 1]], [4, [1.384932, 1]], [4, [0.692466, 1]]]
  ETB auxbasis for H  [[0, [32.28416, 1]], [0, [16.14208, 1]], [0, [8.07104, 1]], [0, [4.03552, 1]], [0, [2.01776, 1]], [0, [1.00888, 1]], [0, [0.50444, 1]], [0, [0.25222, 1]], [0, [0.12611, 1]], [1, [8.571507550502421, 1]], [1, [4.2857537752512105, 1]], [1, [2.1428768876256052, 1]], [1, [1.0714384438128026, 1]], [1, [0.5357192219064013, 1]], [1, [0.26785961095320066, 1]], [2, [4.551504, 1]], [2, [2.275752, 1]], [2, [1.137876, 1]], [2, [0.568938, 1]]]
num shells = 90, num cGTOs = 360
    CPU time for df-vj     31.85 sec, wall time      0.25 sec
E1 = -47.9113265422595  Ecoul = 24.10241822415637  Exc = -4.246577040808333
init E= -15.697856867881
cond(S) = 49244.33503478254
    CPU time for initialize scf    262.37 sec, wall time      2.21 sec
  HOMO = -0.421604511810276  LUMO = -0.0962583429013142
  mo_energy =
[-9.85972170e-01 -5.81608204e-01 -4.39686148e-01 -4.21604512e-01
 -4.21604512e-01 -9.62583429e-02 -9.62583429e-02  1.48776644e-02
  4.74450132e-02  1.77511789e-01  1.77511789e-01  2.03843229e-01
  2.70957015e-01  3.16255379e-01  3.16255379e-01  3.21966782e-01
  4.04183959e-01  4.04183971e-01  4.84155069e-01  4.84155069e-01
  4.91665089e-01  6.17867720e-01  8.09165831e-01  8.09165886e-01
  8.53808331e-01  8.53808331e-01  8.90745256e-01  9.54328896e-01
  1.00060741e+00  1.10565668e+00  1.10565668e+00  1.16121063e+00
  1.22584156e+00  1.22584156e+00  1.46872645e+00  1.46872645e+00
  1.60398087e+00  1.60398090e+00  1.63529326e+00  1.63529326e+00
  1.64970282e+00  1.74144538e+00  1.74144555e+00  1.86541116e+00
  1.94966356e+00  1.94966356e+00  1.96930613e+00  1.96930613e+00
  2.13020153e+00  2.24410228e+00  2.30333206e+00  2.30333242e+00
  2.39174143e+00  2.41292974e+00  2.41292974e+00  2.60482657e+00
  2.60482657e+00  2.77925160e+00  2.78377980e+00  2.78378082e+00
  3.00070619e+00  3.00070619e+00  3.16544016e+00  3.16544099e+00
  3.31888252e+00  3.61404794e+00  3.67313546e+00  3.67313546e+00
  3.93266254e+00  3.93266254e+00  4.23125458e+00  4.45813717e+00
  4.66356729e+00  4.66356729e+00  4.73279974e+00  4.73280135e+00
  5.07861183e+00  5.07861183e+00  5.09578276e+00  5.09578375e+00
  5.30577959e+00  5.30577959e+00  5.38359417e+00  5.38359563e+00
  5.48911239e+00  5.53134139e+00  5.53134139e+00  5.72255544e+00
  5.73821017e+00  5.73821017e+00  6.00321162e+00  6.00321162e+00
  6.18468145e+00  6.18468212e+00  6.32887049e+00  6.32888511e+00
  6.49121478e+00  6.55706947e+00  6.55706947e+00  6.80324607e+00
  6.90352715e+00  6.90352715e+00  7.24156927e+00  7.24156927e+00
  7.29569923e+00  7.29570284e+00  7.31845228e+00  7.57715107e+00
  7.60548924e+00  7.60548924e+00  7.76356865e+00  7.76357103e+00
  7.78231591e+00  8.01062129e+00  8.01062129e+00  8.23026607e+00
  8.23026607e+00  8.38789853e+00  8.38791264e+00  8.72096320e+00
  8.72096737e+00  8.78976847e+00  9.06762408e+00  9.06762408e+00
  9.45148843e+00  9.48268391e+00  9.48268391e+00  9.64022052e+00
  9.64022252e+00  1.01469150e+01  1.08827231e+01  1.08827231e+01
  1.15545395e+01  1.22875790e+01  1.22875790e+01  1.36222860e+01
  1.81182612e+01  1.97352784e+01]
nelec by numeric integration = 10.000000079162934
    CPU time for vxc     33.87 sec, wall time      0.27 sec
    CPU time for df-vj      3.54 sec, wall time      0.03 sec
E1 = -49.8264562318115  Ecoul = 25.99502082306753  Exc = -4.549065604579775
cycle= 1 E= -16.0228725222933  delta_E= -0.325  |g|= 0.482  |ddm|= 4.22
    CPU time for cycle= 1     43.51 sec, wall time      0.35 sec
  HOMO = -0.199986875879861  LUMO = 0.00286075625997657
  mo_energy =
[-7.17244597e-01 -5.57831351e-01 -2.53365976e-01 -2.53365976e-01
 -1.99986876e-01  2.86075626e-03  2.99622507e-02  2.99622507e-02
  7.72268082e-02  2.20830431e-01  2.20830431e-01  2.66892047e-01
  2.74400468e-01  3.71629311e-01  4.07208279e-01  4.07208279e-01
  4.46226444e-01  4.46226448e-01  4.81794139e-01  4.81794139e-01
  5.48041493e-01  7.05508912e-01  8.93321421e-01  9.03504801e-01
  9.03504801e-01  9.11801866e-01  9.11801911e-01  1.05268812e+00
  1.07596439e+00  1.22036848e+00  1.22036848e+00  1.22809306e+00
  1.30894194e+00  1.30894194e+00  1.51231617e+00  1.51231617e+00
  1.62469912e+00  1.62469918e+00  1.64076686e+00  1.64076686e+00
  1.74764307e+00  1.82817240e+00  1.82817249e+00  1.99567580e+00
  2.05285073e+00  2.05285073e+00  2.11910082e+00  2.11910082e+00
  2.19635704e+00  2.24440743e+00  2.31212726e+00  2.31212763e+00
  2.55924461e+00  2.56546359e+00  2.56546359e+00  2.64733314e+00
  2.64733314e+00  2.86566052e+00  2.99959598e+00  2.99959698e+00
  3.13910557e+00  3.13910557e+00  3.29370498e+00  3.29370578e+00
  3.35998115e+00  3.70150828e+00  3.70150828e+00  3.71865326e+00
  4.07534820e+00  4.07534820e+00  4.41656669e+00  4.65163242e+00
  4.74891238e+00  4.74891238e+00  4.80425513e+00  4.80425678e+00
  5.16845876e+00  5.16846015e+00  5.21248601e+00  5.21248601e+00
  5.40207764e+00  5.40207764e+00  5.53418130e+00  5.53418170e+00
  5.58342994e+00  5.68015142e+00  5.68015142e+00  5.89511310e+00
  5.89511310e+00  5.90235960e+00  5.98260046e+00  5.98260046e+00
  6.31146299e+00  6.31146339e+00  6.54483619e+00  6.54485023e+00
  6.56435499e+00  6.83386155e+00  6.83386155e+00  6.97333804e+00
  7.09585689e+00  7.09585689e+00  7.28122905e+00  7.28122905e+00
  7.34344802e+00  7.34345266e+00  7.38007779e+00  7.69912765e+00
  7.70003567e+00  7.70003567e+00  7.75759410e+00  7.75759593e+00
  7.92920088e+00  8.20414217e+00  8.20414217e+00  8.50874574e+00
  8.50874574e+00  8.55002692e+00  8.55004253e+00  8.93098581e+00
  8.99658753e+00  8.99659132e+00  9.04923626e+00  9.04923626e+00
  9.65015184e+00  9.70513862e+00  9.70513862e+00  9.91293168e+00
  9.91293302e+00  1.02780260e+01  1.10550854e+01  1.10550854e+01
  1.17640423e+01  1.24901715e+01  1.24901715e+01  1.37990103e+01
  1.84525398e+01  1.99716159e+01]
nelec by numeric integration = 10.00000004835532
    CPU time for vxc     46.02 sec, wall time      0.36 sec
    CPU time for df-vj     10.99 sec, wall time      0.09 sec
E1 = -47.43826549122701  Ecoul = 23.44651646904679  Exc = -4.121491673270305
cycle= 2 E= -15.7556122044201  delta_E= 0.267  |g|= 1.12  |ddm|= 2.31
    CPU time for cycle= 2    142.30 sec, wall time      1.12 sec
  HOMO = -0.314884868727901  LUMO = -0.0217478429950177
  mo_energy =
[-0.81694648 -0.52897073 -0.32672488 -0.31488487 -0.31488487 -0.02174784
 -0.02174784  0.02223587  0.06892305  0.21659214  0.21659214  0.2357655
  0.29005491  0.34802765  0.35543805  0.35543805  0.44045403  0.44045403
  0.49313062  0.49313062  0.52822077  0.67176884  0.85546501  0.85546505
  0.88439863  0.88439863  0.91055693  1.01579019  1.05109821  1.15899065
  1.15899065  1.20244045  1.30862759  1.30862759  1.51258506  1.51258506
  1.63530613  1.63530618  1.66493126  1.66493126  1.71834822  1.82214161
  1.82214168  1.93364561  2.01061719  2.01061719  2.04735907  2.04735907
  2.19007153  2.26482378  2.32382729  2.32382766  2.47180176  2.47825516
  2.47825516  2.63203058  2.63203058  2.82758933  2.86812297  2.86812396
  3.06956583  3.06956583  3.22829726  3.22829803  3.3667269   3.68081791
  3.70425866  3.70425866  4.02424459  4.02424459  4.34276559  4.58018836
  4.74380985  4.74380985  4.81172792  4.81172953  5.19147534  5.19147644
  5.22007034  5.22007034  5.4126687   5.4126687   5.49201001  5.49201065
  5.59933762  5.66286938  5.66286938  5.84977592  5.84977592  5.85750096
  6.01272968  6.01272968  6.32210817  6.32210852  6.41437699  6.41439091
  6.55950115  6.67870711  6.67870711  6.88553678  6.9956656   6.9956656
  7.2801475   7.2801475   7.34876117  7.34876527  7.37567981  7.66951863
  7.68828002  7.68828002  7.77751912  7.77752143  7.84962329  8.09493677
  8.09493677  8.33529507  8.33529507  8.45897257  8.45898681  8.84640145
  8.84640542  8.8706679   9.08692825  9.08692825  9.57320575  9.6089346
  9.6089346   9.75377593  9.75377754 10.23748075 10.98297051 10.98297051
 11.68568554 12.39641979 12.39641979 13.74761016 18.27255059 19.9387844 ]
nelec by numeric integration = 10.000000067633549
    CPU time for vxc     36.32 sec, wall time      0.29 sec
    CPU time for df-vj      7.92 sec, wall time      0.06 sec
E1 = -48.86877000276726  Ecoul = 24.80608533448882  Exc = -4.3580247067336195
cycle= 3 E= -16.0630808839816  delta_E= -0.307  |g|= 0.267  |ddm|=  1.7
    CPU time for cycle= 3     89.75 sec, wall time      0.72 sec
  HOMO = -0.337430892087022  LUMO = -0.0442914848156617
  mo_energy =
[-8.56029350e-01 -5.61420589e-01 -3.42280475e-01 -3.42280475e-01
 -3.37430892e-01 -4.42914848e-02 -4.42914848e-02  1.01324395e-02
  5.92946126e-02  1.98117118e-01  1.98117118e-01  2.31585890e-01
  2.76043600e-01  3.41612462e-01  3.48057778e-01  3.48057778e-01
  4.22815332e-01  4.22815337e-01  4.82291753e-01  4.82291753e-01
  5.15680605e-01  6.58415206e-01  8.48529796e-01  8.48529841e-01
  8.72800695e-01  8.72800695e-01  8.95731768e-01  9.99026022e-01
  1.03681327e+00  1.15399440e+00  1.15399440e+00  1.18442391e+00
  1.27109657e+00  1.27109657e+00  1.48872338e+00  1.48872338e+00
  1.61700635e+00  1.61700640e+00  1.64411921e+00  1.64411921e+00
  1.69820843e+00  1.78501519e+00  1.78501529e+00  1.92022820e+00
  1.99971402e+00  1.99971402e+00  2.02271791e+00  2.02271791e+00
  2.16357877e+00  2.24617839e+00  2.30687916e+00  2.30687953e+00
  2.46188561e+00  2.47073405e+00  2.47073405e+00  2.61934093e+00
  2.61934093e+00  2.81446543e+00  2.85988043e+00  2.85988143e+00
  3.06052264e+00  3.06052264e+00  3.21698220e+00  3.21698297e+00
  3.34300892e+00  3.66325734e+00  3.68748759e+00  3.68748759e+00
  3.99718071e+00  3.99718071e+00  4.31445403e+00  4.54514473e+00
  4.70960322e+00  4.70960322e+00  4.77146613e+00  4.77146760e+00
  5.14831293e+00  5.14831406e+00  5.15969560e+00  5.15969560e+00
  5.36140400e+00  5.36140400e+00  5.45445720e+00  5.45445799e+00
  5.55184755e+00  5.61857702e+00  5.61857702e+00  5.81141924e+00
  5.81141924e+00  5.81425120e+00  5.99617992e+00  5.99617992e+00
  6.26152027e+00  6.26152067e+00  6.40574035e+00  6.40575446e+00
  6.53749998e+00  6.65876842e+00  6.65876842e+00  6.86807333e+00
  6.97868761e+00  6.97868761e+00  7.26665415e+00  7.26665415e+00
  7.32313287e+00  7.32313699e+00  7.35109660e+00  7.64083399e+00
  7.65268031e+00  7.65268031e+00  7.76520954e+00  7.76521167e+00
  7.83202860e+00  8.08471051e+00  8.08471051e+00  8.32465597e+00
  8.32465597e+00  8.44749575e+00  8.44751019e+00  8.82506199e+00
  8.82506586e+00  8.85056625e+00  9.06893378e+00  9.06893378e+00
  9.54474681e+00  9.57963686e+00  9.57963686e+00  9.73609660e+00
  9.73609811e+00  1.02098509e+01  1.09557223e+01  1.09557223e+01
  1.16495116e+01  1.23711118e+01  1.23711118e+01  1.37094705e+01
  1.82435865e+01  1.98645157e+01]
nelec by numeric integration = 10.000000069128665
    CPU time for vxc     32.61 sec, wall time      0.26 sec
    CPU time for df-vj      6.99 sec, wall time      0.06 sec
E1 = -49.02682182303312  Ecoul = 24.968966741571847  Exc = -4.380228430633946
cycle= 4 E= -16.0804550210648  delta_E= -0.0174  |g|= 0.027  |ddm|= 0.362
    CPU time for cycle= 4     94.82 sec, wall time      0.74 sec
  HOMO = -0.335979857245327  LUMO = -0.0417854499110109
  mo_energy =
[-8.50663486e-01 -5.59479258e-01 -3.38229365e-01 -3.38229365e-01
 -3.35979857e-01 -4.17854499e-02 -4.17854499e-02  1.07381812e-02
  6.03583630e-02  2.00175449e-01  2.00175449e-01  2.31922801e-01
  2.77117464e-01  3.42424972e-01  3.49117622e-01  3.49117622e-01
  4.25347187e-01  4.25347187e-01  4.82884462e-01  4.82884462e-01
  5.17120836e-01  6.59919097e-01  8.50537064e-01  8.50537105e-01
  8.74285447e-01  8.74285447e-01  8.96691292e-01  1.00090326e+00
  1.03784208e+00  1.15492188e+00  1.15492188e+00  1.18589908e+00
  1.27514824e+00  1.27514824e+00  1.49198809e+00  1.49198809e+00
  1.61888404e+00  1.61888409e+00  1.64550480e+00  1.64550480e+00
  1.70080858e+00  1.78964040e+00  1.78964047e+00  1.92201614e+00
  2.00155019e+00  2.00155019e+00  2.02578223e+00  2.02578223e+00
  2.16601975e+00  2.24690724e+00  2.30820469e+00  2.30820507e+00
  2.46308882e+00  2.47354096e+00  2.47354096e+00  2.62007168e+00
  2.62007168e+00  2.81572233e+00  2.86212149e+00  2.86212254e+00
  3.06178223e+00  3.06178223e+00  3.21916637e+00  3.21916717e+00
  3.34437570e+00  3.66509747e+00  3.68881292e+00  3.68881292e+00
  3.99989673e+00  3.99989673e+00  4.31752932e+00  4.54917048e+00
  4.71384483e+00  4.71384483e+00  4.77651585e+00  4.77651730e+00
  5.15238185e+00  5.15238307e+00  5.16560911e+00  5.16560911e+00
  5.36712114e+00  5.36712114e+00  5.45915613e+00  5.45915674e+00
  5.55603107e+00  5.62316522e+00  5.62316522e+00  5.81507255e+00
  5.81507255e+00  5.81873034e+00  5.99666937e+00  5.99666937e+00
  6.26755474e+00  6.26755507e+00  6.40876815e+00  6.40878242e+00
  6.53850486e+00  6.66109287e+00  6.66109287e+00  6.86936922e+00
  6.98187000e+00  6.98187000e+00  7.26695477e+00  7.26695477e+00
  7.32512069e+00  7.32512486e+00  7.35237748e+00  7.64324433e+00
  7.65543289e+00  7.65543289e+00  7.76516082e+00  7.76516296e+00
  7.83320815e+00  8.08597990e+00  8.08597990e+00  8.32692012e+00
  8.32692012e+00  8.44876580e+00  8.44878036e+00  8.82796327e+00
  8.82796735e+00  8.85246596e+00  9.06907476e+00  9.06907476e+00
  9.54698613e+00  9.58232882e+00  9.58232882e+00  9.73823734e+00
  9.73823886e+00  1.02113368e+01  1.09580057e+01  1.09580057e+01
  1.16522193e+01  1.23734339e+01  1.23734339e+01  1.37122970e+01
  1.82457219e+01  1.98709601e+01]
nelec by numeric integration = 10.00000006860387
    CPU time for vxc     33.52 sec, wall time      0.26 sec
    CPU time for df-vj      8.01 sec, wall time      0.06 sec
E1 = -49.007146585980486  Ecoul = 24.94647461095764  Exc = -4.3775850662634666
cycle= 5 E= -16.0806285502559  delta_E= -0.000174  |g|= 0.00184  |ddm|= 0.0343
    CPU time for cycle= 5     69.78 sec, wall time      0.55 sec
  HOMO = -0.335571925344409  LUMO = -0.041524869397742
  mo_energy =
[-8.50446109e-01 -5.58854879e-01 -3.38049996e-01 -3.38049996e-01
 -3.35571925e-01 -4.15248694e-02 -4.15248694e-02  1.10277886e-02
  6.04262679e-02  2.00216037e-01  2.00216037e-01  2.32049145e-01
  2.77359325e-01  3.42474435e-01  3.49209162e-01  3.49209162e-01
  4.25367945e-01  4.25367948e-01  4.83108213e-01  4.83108213e-01
  5.17251956e-01  6.60121071e-01  8.50549418e-01  8.50549472e-01
  8.74429656e-01  8.74429656e-01  8.96907294e-01  1.00110486e+00
  1.03804493e+00  1.15501660e+00  1.15501660e+00  1.18622178e+00
  1.27528839e+00  1.27528839e+00  1.49203618e+00  1.49203618e+00
  1.61912626e+00  1.61912632e+00  1.64590288e+00  1.64590288e+00
  1.70096873e+00  1.78977554e+00  1.78977563e+00  1.92226608e+00
  2.00172530e+00  2.00172530e+00  2.02603305e+00  2.02603305e+00
  2.16627210e+00  2.24736423e+00  2.30849168e+00  2.30849205e+00
  2.46332389e+00  2.47354047e+00  2.47354047e+00  2.62038614e+00
  2.62038614e+00  2.81602217e+00  2.86229898e+00  2.86229985e+00
  3.06206576e+00  3.06206576e+00  3.21928894e+00  3.21928969e+00
  3.34488833e+00  3.66538905e+00  3.68917053e+00  3.68917053e+00
  4.00025463e+00  4.00025463e+00  4.31786447e+00  4.54945994e+00
  4.71410577e+00  4.71410577e+00  4.77664969e+00  4.77665114e+00
  5.15282550e+00  5.15282670e+00  5.16586026e+00  5.16586026e+00
  5.36733837e+00  5.36733837e+00  5.45939854e+00  5.45939914e+00
  5.55649575e+00  5.62354104e+00  5.62354104e+00  5.81549954e+00
  5.81549954e+00  5.81907839e+00  5.99719011e+00  5.99719011e+00
  6.26783832e+00  6.26783901e+00  6.40884496e+00  6.40885908e+00
  6.53915812e+00  6.66153470e+00  6.66153470e+00  6.86986670e+00
  6.98206212e+00  6.98206212e+00  7.26747401e+00  7.26747401e+00
  7.32555927e+00  7.32556348e+00  7.35299516e+00  7.64374746e+00
  7.65595321e+00  7.65595321e+00  7.76577736e+00  7.76577947e+00
  7.83374858e+00  8.08643591e+00  8.08643591e+00  8.32722111e+00
  8.32722111e+00  8.44925184e+00  8.44926625e+00  8.82833225e+00
  8.82833613e+00  8.85292964e+00  9.06980155e+00  9.06980155e+00
  9.54758544e+00  9.58285439e+00  9.58285439e+00  9.73869930e+00
  9.73870084e+00  1.02120627e+01  1.09585712e+01  1.09585712e+01
  1.16528796e+01  1.23739899e+01  1.23739899e+01  1.37129269e+01
  1.82464289e+01  1.98713895e+01]
nelec by numeric integration = 10.000000068630808
    CPU time for vxc     36.57 sec, wall time      0.29 sec
    CPU time for df-vj      7.55 sec, wall time      0.06 sec
E1 = -49.004361910366065  Ecoul = 24.94291701948488  Exc = -4.376812989902569
cycle= 6 E= -16.0806293897533  delta_E= -8.39e-07  |g|= 0.000489  |ddm|= 0.00501
    CPU time for cycle= 6     69.26 sec, wall time      0.54 sec
  HOMO = -0.335702253232396  LUMO = -0.0416343274201455
  mo_energy =
[-8.50573410e-01 -5.58980836e-01 -3.38169505e-01 -3.38169505e-01
 -3.35702253e-01 -4.16343274e-02 -4.16343274e-02  1.09741082e-02
  6.03729777e-02  2.00155398e-01  2.00155398e-01  2.31996928e-01
  2.77304800e-01  3.42430443e-01  3.49146363e-01  3.49146363e-01
  4.25302469e-01  4.25302474e-01  4.83048056e-01  4.83048056e-01
  5.17187786e-01  6.60043316e-01  8.50480479e-01  8.50480537e-01
  8.74362262e-01  8.74362262e-01  8.96848110e-01  1.00102711e+00
  1.03797464e+00  1.15495506e+00  1.15495506e+00  1.18613550e+00
  1.27519617e+00  1.27519617e+00  1.49196260e+00  1.49196260e+00
  1.61905022e+00  1.61905028e+00  1.64581282e+00  1.64581282e+00
  1.70088767e+00  1.78967702e+00  1.78967712e+00  1.92217043e+00
  2.00163208e+00  2.00163208e+00  2.02592635e+00  2.02592635e+00
  2.16618392e+00  2.24727215e+00  2.30841267e+00  2.30841304e+00
  2.46323655e+00  2.47345144e+00  2.47345144e+00  2.62030486e+00
  2.62030486e+00  2.81592931e+00  2.86217297e+00  2.86217380e+00
  3.06196937e+00  3.06196937e+00  3.21920314e+00  3.21920389e+00
  3.34477640e+00  3.66529292e+00  3.68908186e+00  3.68908186e+00
  4.00013907e+00  4.00013907e+00  4.31774693e+00  4.54933633e+00
  4.71400034e+00  4.71400034e+00  4.77654972e+00  4.77655116e+00
  5.15270313e+00  5.15270438e+00  5.16572944e+00  5.16572944e+00
  5.36721946e+00  5.36721946e+00  5.45928531e+00  5.45928593e+00
  5.55636667e+00  5.62341696e+00  5.62341696e+00  5.81536869e+00
  5.81536869e+00  5.81896090e+00  5.99709328e+00  5.99709328e+00
  6.26770232e+00  6.26770309e+00  6.40872026e+00  6.40873435e+00
  6.53902629e+00  6.66137160e+00  6.66137160e+00  6.86972936e+00
  6.98194304e+00  6.98194304e+00  7.26736334e+00  7.26736334e+00
  7.32545065e+00  7.32545486e+00  7.35286714e+00  7.64361974e+00
  7.65582447e+00  7.65582447e+00  7.76566532e+00  7.76566742e+00
  7.83361210e+00  8.08630084e+00  8.08630084e+00  8.32705822e+00
  8.32705822e+00  8.44911195e+00  8.44912632e+00  8.82818404e+00
  8.82818787e+00  8.85280094e+00  9.06967840e+00  9.06967840e+00
  9.54744102e+00  9.58271104e+00  9.58271104e+00  9.73852870e+00
  9.73853025e+00  1.02119125e+01  1.09584255e+01  1.09584255e+01
  1.16527272e+01  1.23738405e+01  1.23738405e+01  1.37127783e+01
  1.82462322e+01  1.98712239e+01]
nelec by numeric integration = 10.000000068640345
    CPU time for vxc     28.46 sec, wall time      0.22 sec
    CPU time for df-vj      3.06 sec, wall time      0.02 sec
E1 = -49.00528895819641  Ecoul = 24.94405083883895  Exc = -4.377019696629868
cycle= 7 E= -16.0806293249569  delta_E= 6.48e-08  |g|= 2.94e-05  |ddm|= 0.00109
    CPU time for cycle= 7     86.76 sec, wall time      0.68 sec
  HOMO = -0.335699534861052  LUMO = -0.0416311095404316
  mo_energy =
[-8.50569765e-01 -5.58977918e-01 -3.38166094e-01 -3.38166094e-01
 -3.35699535e-01 -4.16311095e-02 -4.16311095e-02  1.09751029e-02
  6.03727229e-02  2.00155833e-01  2.00155833e-01  2.31996541e-01
  2.77305884e-01  3.42429818e-01  3.49147192e-01  3.49147192e-01
  4.25303286e-01  4.25303290e-01  4.83048185e-01  4.83048185e-01
  5.17188439e-01  6.60044227e-01  8.50480757e-01  8.50480815e-01
  8.74362965e-01  8.74362965e-01  8.96849100e-01  1.00102787e+00
  1.03797524e+00  1.15495522e+00  1.15495522e+00  1.18613643e+00
  1.27519878e+00  1.27519878e+00  1.49196420e+00  1.49196420e+00
  1.61905151e+00  1.61905157e+00  1.64581413e+00  1.64581413e+00
  1.70088895e+00  1.78967958e+00  1.78967968e+00  1.92217199e+00
  2.00163360e+00  2.00163360e+00  2.02592866e+00  2.02592866e+00
  2.16618616e+00  2.24727285e+00  2.30841358e+00  2.30841396e+00
  2.46323780e+00  2.47345226e+00  2.47345226e+00  2.62030530e+00
  2.62030530e+00  2.81593019e+00  2.86217611e+00  2.86217693e+00
  3.06197020e+00  3.06197020e+00  3.21920388e+00  3.21920463e+00
  3.34477798e+00  3.66529373e+00  3.68908247e+00  3.68908247e+00
  4.00014207e+00  4.00014207e+00  4.31774978e+00  4.54933995e+00
  4.71400296e+00  4.71400296e+00  4.77655294e+00  4.77655438e+00
  5.15270694e+00  5.15270814e+00  5.16573430e+00  5.16573430e+00
  5.36722359e+00  5.36722359e+00  5.45928764e+00  5.45928824e+00
  5.55637126e+00  5.62342062e+00  5.62342062e+00  5.81537186e+00
  5.81537186e+00  5.81896371e+00  5.99709386e+00  5.99709386e+00
  6.26770722e+00  6.26770801e+00  6.40872271e+00  6.40873680e+00
  6.53902755e+00  6.66137833e+00  6.66137833e+00  6.86973353e+00
  6.98194535e+00  6.98194535e+00  7.26736368e+00  7.26736368e+00
  7.32545211e+00  7.32545632e+00  7.35286855e+00  7.64362202e+00
  7.65582705e+00  7.65582705e+00  7.76566492e+00  7.76566702e+00
  7.83361513e+00  8.08630308e+00  8.08630308e+00  8.32706389e+00
  8.32706389e+00  8.44911489e+00  8.44912926e+00  8.82818914e+00
  8.82819296e+00  8.85280303e+00  9.06967792e+00  9.06967792e+00
  9.54744428e+00  9.58271546e+00  9.58271546e+00  9.73853517e+00
  9.73853671e+00  1.02119154e+01  1.09584294e+01  1.09584294e+01
  1.16527318e+01  1.23738446e+01  1.23738446e+01  1.37127823e+01
  1.82462425e+01  1.98712316e+01]
nelec by numeric integration = 10.000000068639793
    CPU time for vxc     34.19 sec, wall time      0.27 sec
    CPU time for df-vj      2.05 sec, wall time      0.02 sec
E1 = -49.00523561491116  Ecoul = 24.943986654593566  Exc = -4.37700885586095
cycle= 8 E= -16.0806293251481  delta_E= -1.91e-10  |g|= 2.8e-06  |ddm|= 5.86e-05
    CPU time for cycle= 8     91.85 sec, wall time      0.72 sec
  HOMO = -0.335700160779407  LUMO = -0.0416311705583228
  mo_energy =
[-8.50569912e-01 -5.58976968e-01 -3.38166263e-01 -3.38166263e-01
 -3.35700161e-01 -4.16311706e-02 -4.16311706e-02  1.09756848e-02
  6.03728041e-02  2.00155943e-01  2.00155943e-01  2.31996470e-01
  2.77306362e-01  3.42429810e-01  3.49147003e-01  3.49147003e-01
  4.25303364e-01  4.25303369e-01  4.83048602e-01  4.83048602e-01
  5.17188508e-01  6.60044260e-01  8.50480491e-01  8.50480549e-01
  8.74363081e-01  8.74363081e-01  8.96849487e-01  1.00102802e+00
  1.03797532e+00  1.15495490e+00  1.15495490e+00  1.18613682e+00
  1.27519915e+00  1.27519915e+00  1.49196437e+00  1.49196437e+00
  1.61905193e+00  1.61905199e+00  1.64581479e+00  1.64581479e+00
  1.70088906e+00  1.78967989e+00  1.78967999e+00  1.92217186e+00
  2.00163340e+00  2.00163340e+00  2.02592874e+00  2.02592874e+00
  2.16618646e+00  2.24727364e+00  2.30841409e+00  2.30841447e+00
  2.46323741e+00  2.47345181e+00  2.47345181e+00  2.62030567e+00
  2.62030567e+00  2.81593030e+00  2.86217542e+00  2.86217624e+00
  3.06197000e+00  3.06197000e+00  3.21920368e+00  3.21920443e+00
  3.34477868e+00  3.66529387e+00  3.68908302e+00  3.68908302e+00
  4.00014219e+00  4.00014219e+00  4.31774980e+00  4.54934000e+00
  4.71400340e+00  4.71400340e+00  4.77655329e+00  4.77655474e+00
  5.15270765e+00  5.15270885e+00  5.16573490e+00  5.16573490e+00
  5.36722409e+00  5.36722409e+00  5.45928798e+00  5.45928858e+00
  5.55637192e+00  5.62342109e+00  5.62342109e+00  5.81537228e+00
  5.81537228e+00  5.81896413e+00  5.99709477e+00  5.99709477e+00
  6.26770785e+00  6.26770863e+00  6.40872203e+00  6.40873611e+00
  6.53902830e+00  6.66137751e+00  6.66137751e+00  6.86973333e+00
  6.98194502e+00  6.98194502e+00  7.26736429e+00  7.26736429e+00
  7.32545278e+00  7.32545699e+00  7.35286940e+00  7.64362250e+00
  7.65582779e+00  7.65582779e+00  7.76566590e+00  7.76566799e+00
  7.83361523e+00  8.08630274e+00  8.08630274e+00  8.32706293e+00
  8.32706293e+00  8.44911471e+00  8.44912907e+00  8.82818851e+00
  8.82819233e+00  8.85280316e+00  9.06967922e+00  9.06967922e+00
  9.54744444e+00  9.58271536e+00  9.58271536e+00  9.73853440e+00
  9.73853594e+00  1.02119160e+01  1.09584295e+01  1.09584295e+01
  1.16527321e+01  1.23738445e+01  1.23738445e+01  1.37127828e+01
  1.82462415e+01  1.98712322e+01]
nelec by numeric integration = 10.000000068639913
    CPU time for vxc     38.79 sec, wall time      0.31 sec
    CPU time for df-vj      7.93 sec, wall time      0.06 sec
E1 = -49.005242298648156  Ecoul = 24.943994620915948  Exc = -4.377010138431516
Extra cycle  E= -16.0806293251333  delta_E= 1.48e-11  |g|= 8.5e-06  |ddm|= 1.26e-05
    CPU time for scf_cycle   1045.19 sec, wall time      8.38 sec
    CPU time for SCF   1045.21 sec, wall time      8.38 sec
converged SCF energy = -16.0806293251333
