#INFO: **** input file is /home/nkousuke/lustre/toBeSync/turboRVB/05turbo-genius-development/turbogenius_paper/04data/sanity_checks/03pyscf_HF_turbo_VMC_via_trexio/00open_boundary/results/Ne/pyscf-HF-workflow/run.py ****

from pyscf_wrapper import Pyscf_wrapper

# input variables
pyscf_chkfile="pyscf.chk"
structure_file="Ne.xyz"

# input variables
omp_num_threads=128
charge=0
spin=0
basis="ccecp-ccpv6z"
ecp="ccecp"
scf_method="HF"
dft_xc="NA"
solver_newton=False
MP2_flag=False
CCSD_flag=False
pyscf_output="out.pyscf"
twist_average=False
exp_to_discard=0.0
kpt=[0.0, 0.0, 0.0]
kpt_grid=[1, 1, 1]
smearing_method="fermi"
smearing_sigma=0.0

pyscf_calc=Pyscf_wrapper(
                        structure_file=structure_file,
                        chkfile=pyscf_chkfile,
                        )

pyscf_calc.run_pyscf(
                  omp_num_threads=omp_num_threads,
                  charge=charge,
                  spin=spin,
                  basis=basis,
                  ecp=ecp,
                  scf_method=scf_method,
                  dft_xc=dft_xc,
                  solver_newton=solver_newton,
                  MP2_flag=MP2_flag,
                  CCSD_flag=CCSD_flag,
                  pyscf_output=pyscf_output,
                  twist_average=twist_average,
                  exp_to_discard=exp_to_discard,
                  kpt=kpt,
                  kpt_grid=kpt_grid,
                  smearing_method=smearing_method,
                  smearing_sigma=smearing_sigma
                  )
                #INFO: ******************** input file end ********************


System: uname_result(system='Linux', node='spcc-200', release='5.4.0-66-generic', version='#74-Ubuntu SMP Wed Jan 27 22:54:38 UTC 2021', machine='x86_64', processor='x86_64')  Threads 128
Python 3.7.3 (default, Mar 27 2019, 22:11:17) 
[GCC 7.3.0]
numpy 1.20.1  scipy 1.7.3
Date: Mon Dec 19 18:10:50 2022
PySCF version 2.0.1
PySCF path  /home/nkousuke/application/anaconda3/lib/python3.7/site-packages/pyscf

[CONFIG] conf_file /home/nkousuke/.pyscf_conf.py
[INPUT] verbose = 5
[INPUT] max_memory = 507464.62109375 
[INPUT] num. atoms = 1
[INPUT] num. electrons = 8
[INPUT] charge = 0
[INPUT] spin (= nelec alpha-beta = 2S) = 0
[INPUT] symmetry False subgroup None
[INPUT] Mole.unit = A
[INPUT]  1 Ne     0.000000000000   0.000000000000   0.000000000000 AA    0.000000000000   0.000000000000   0.000000000000 Bohr
[INPUT] ---------------- BASIS SET ---------------- 
[INPUT] l, kappa, [nprim/nctr], expnt,             c_1 c_2 ...
[INPUT] Ne
[INPUT] 0    0    [10   /1   ]  89.999848         3.37e-05
                                44.745732         -0.0005586
                                22.246488         0.0185884
                                11.060411         -0.1268973
                                5.498967          -0.0485302
                                2.733953          0.1789178
                                1.359255          0.3770102
                                0.675788          0.3900693
                                0.335985          0.1855301
                                0.167044          0.0249438
[INPUT] 0    0    [1    /1   ]  5.645582             1
[INPUT] 0    0    [1    /1   ]  2.598539             1
[INPUT] 0    0    [1    /1   ]  1.196052             1
[INPUT] 0    0    [1    /1   ]  0.550517             1
[INPUT] 0    0    [1    /1   ]  0.253391             1
[INPUT] 1    0    [10   /1   ]  40.001333         0.0036474
                                20.592442         0.0330182
                                10.600863         0.0681433
                                5.45726           0.1351194
                                2.809364          0.2148419
                                1.446244          0.264952
                                0.744517          0.2584338
                                0.383273          0.1904296
                                0.197307          0.0847494
                                0.101572          0.0154205
[INPUT] 1    0    [1    /1   ]  5.956575             1
[INPUT] 1    0    [1    /1   ]  2.513531             1
[INPUT] 1    0    [1    /1   ]  1.060649             1
[INPUT] 1    0    [1    /1   ]  0.447568             1
[INPUT] 1    0    [1    /1   ]  0.188863             1
[INPUT] 2    0    [1    /1   ]  15.50208             1
[INPUT] 2    0    [1    /1   ]  6.688366             1
[INPUT] 2    0    [1    /1   ]  2.885693             1
[INPUT] 2    0    [1    /1   ]  1.245031             1
[INPUT] 2    0    [1    /1   ]  0.537168             1
[INPUT] 3    0    [1    /1   ]  9.454061             1
[INPUT] 3    0    [1    /1   ]  4.194532             1
[INPUT] 3    0    [1    /1   ]  1.86101              1
[INPUT] 3    0    [1    /1   ]  0.825684             1
[INPUT] 4    0    [1    /1   ]  8.764366             1
[INPUT] 4    0    [1    /1   ]  3.622402             1
[INPUT] 4    0    [1    /1   ]  1.497176             1
[INPUT] 5    0    [1    /1   ]  6.298847             1
[INPUT] 5    0    [1    /1   ]  2.452948             1
[INPUT] 6    0    [1    /1   ]  4.489278             1

nuclear repulsion = 0
number of shells = 27
number of NR pGTOs = 175
number of NR cGTOs = 139
basis = ccecp-ccpv6z
ecp = ccecp
CPU time:         6.48


******** <class 'pyscf.scf.hf.RHF'> ********
method = RHF
initial guess = minao
damping factor = 0
level_shift factor = 0
DIIS = <class 'pyscf.scf.diis.CDIIS'>
diis_start_cycle = 1
diis_space = 8
SCF conv_tol = 1e-09
SCF conv_tol_grad = None
SCF max_cycles = 200
direct_scf = True
direct_scf_tol = 1e-13
chkfile to save SCF result = pyscf.chk
max_memory 507464 MB (current use 106 MB)
Set gradient conv threshold to 3.16228e-05
E1 = -60.43012897263783  E_coul = 25.72131040238012
init E= -34.7088185702577
cond(S) = 25233.816086199087
    CPU time for initialize scf    246.12 sec, wall time      2.61 sec
  HOMO = -0.850753299944196  LUMO = 0.476588718788267
  mo_energy =
[-1.94149418 -0.8507533  -0.8507533  -0.8507533   0.47658872  0.47658872
  0.47658872  0.51885464  1.43792549  1.43792549  1.43792549  1.43792549
  1.43792549  1.92164499  1.92164499  1.92164499  2.57131317  3.15797329
  3.15797329  3.15797329  3.15797329  3.15797329  3.15797329  3.15797329
  4.20469083  4.20469083  4.20469083  4.20469083  4.20469083  5.67158246
  5.67158246  5.67158246  7.36917016  7.36917016  7.36917016  7.36917016
  7.36917016  7.36917016  7.36917016  7.36917016  7.36917016  7.93359445
  8.63892433  8.63892433  8.63892433  8.63892433  8.63892433  8.63892433
  8.63892433 10.47972388 10.47972388 10.47972388 10.47972388 10.47972388
 14.75022391 14.75022391 14.75022391 14.75022391 14.75022391 14.75022391
 14.75022391 14.75022391 14.75022391 14.75022391 14.75022391 15.52778829
 15.52778829 15.52778829 20.26691601 20.26691601 20.26691601 20.26691601
 20.26691601 20.26691601 20.26691601 20.26691601 20.26691601 20.36349996
 20.57064257 20.57064257 20.57064257 20.57064257 20.57064257 20.57064257
 20.57064257 25.49124775 25.49124775 25.49124775 25.49124775 25.49124775
 32.16214225 32.16214225 32.16214225 32.16214225 32.16214225 32.16214225
 32.16214225 32.16214225 32.16214225 32.16214225 32.16214225 32.16214225
 32.16214225 41.90871645 41.90871645 41.90871645 41.90871645 41.90871645
 41.90871645 41.90871645 41.90871645 41.90871645 41.90871645 41.90871645
 46.18219334 46.18219334 46.18219334 48.45140064 48.45140064 48.45140064
 48.45140064 48.45140064 48.45140064 48.45140064 49.78576279 51.52764605
 51.52764605 51.52764605 51.52764605 51.52764605 51.52764605 51.52764605
 51.52764605 51.52764605 63.20251476 63.20251476 63.20251476 63.20251476
 63.20251476]
E1 = -60.430139579447264  E_coul = 25.721321008993684
cycle= 1 E= -34.7088185704536  delta_E= -1.96e-10  |g|= 4.31e-06  |ddm|= 0.000152
    CPU time for cycle= 1     24.27 sec, wall time      0.22 sec
  HOMO = -0.850751927231255  LUMO = 0.47658881542349
  mo_energy =
[-1.941493   -0.85075193 -0.85075193 -0.85075193  0.47658882  0.47658882
  0.47658882  0.51885483  1.43792599  1.43792599  1.43792599  1.43792599
  1.43792599  1.9216456   1.9216456   1.9216456   2.57131396  3.15797376
  3.15797376  3.15797376  3.15797376  3.15797376  3.15797376  3.15797376
  4.20469172  4.20469172  4.20469172  4.20469172  4.20469172  5.67158367
  5.67158367  5.67158367  7.36917102  7.36917102  7.36917102  7.36917102
  7.36917102  7.36917102  7.36917102  7.36917102  7.36917102  7.93359575
  8.6389255   8.6389255   8.6389255   8.6389255   8.6389255   8.6389255
  8.6389255  10.47972548 10.47972548 10.47972548 10.47972548 10.47972548
 14.75022517 14.75022517 14.75022517 14.75022517 14.75022517 14.75022517
 14.75022517 14.75022517 14.75022517 14.75022517 14.75022517 15.52779018
 15.52779018 15.52779018 20.26691768 20.26691768 20.26691768 20.26691768
 20.26691768 20.26691768 20.26691768 20.26691768 20.26691768 20.36350194
 20.57064437 20.57064437 20.57064437 20.57064437 20.57064437 20.57064437
 20.57064437 25.49124982 25.49124982 25.49124982 25.49124982 25.49124982
 32.16214398 32.16214398 32.16214398 32.16214398 32.16214398 32.16214398
 32.16214398 32.16214398 32.16214398 32.16214398 32.16214398 32.16214398
 32.16214398 41.90871841 41.90871841 41.90871841 41.90871841 41.90871841
 41.90871841 41.90871841 41.90871841 41.90871841 41.90871841 41.90871841
 46.18219578 46.18219578 46.18219578 48.4514029  48.4514029  48.4514029
 48.4514029  48.4514029  48.4514029  48.4514029  49.7857653  51.52764822
 51.52764822 51.52764822 51.52764822 51.52764822 51.52764822 51.52764822
 51.52764822 51.52764822 63.20251722 63.20251722 63.20251722 63.20251722
 63.20251722]
E1 = -60.43013695961061  E_coul = 25.72131838915461
Extra cycle  E= -34.708818570456  delta_E= -2.42e-12  |g|= 8.01e-07  |ddm|= 1.18e-05
    CPU time for scf_cycle    299.42 sec, wall time      3.06 sec
    CPU time for SCF    299.42 sec, wall time      3.06 sec
converged SCF energy = -34.708818570456
