#INFO: **** input file is /home/nkousuke/lustre/toBeSync/turboRVB/05turbo-genius-development/turbogenius_paper/04data/sanity_checks/03pyscf_HF_turbo_VMC_via_trexio/00open_boundary/results/H2CO/pyscf-HF-workflow/run.py ****

from pyscf_wrapper import Pyscf_wrapper

# input variables
pyscf_chkfile="pyscf.chk"
structure_file="H2CO.xyz"

# input variables
omp_num_threads=128
charge=0
spin=0
basis="ccecp-ccpvqz"
ecp="ccecp"
scf_method="HF"
dft_xc="NA"
solver_newton=False
MP2_flag=False
CCSD_flag=False
pyscf_output="out.pyscf"
twist_average=False
exp_to_discard=0.0
kpt=[0.0, 0.0, 0.0]
kpt_grid=[1, 1, 1]
smearing_method="fermi"
smearing_sigma=0.0

pyscf_calc=Pyscf_wrapper(
                        structure_file=structure_file,
                        chkfile=pyscf_chkfile,
                        )

pyscf_calc.run_pyscf(
                  omp_num_threads=omp_num_threads,
                  charge=charge,
                  spin=spin,
                  basis=basis,
                  ecp=ecp,
                  scf_method=scf_method,
                  dft_xc=dft_xc,
                  solver_newton=solver_newton,
                  MP2_flag=MP2_flag,
                  CCSD_flag=CCSD_flag,
                  pyscf_output=pyscf_output,
                  twist_average=twist_average,
                  exp_to_discard=exp_to_discard,
                  kpt=kpt,
                  kpt_grid=kpt_grid,
                  smearing_method=smearing_method,
                  smearing_sigma=smearing_sigma
                  )
                #INFO: ******************** input file end ********************


System: uname_result(system='Linux', node='spcc-200', release='5.4.0-66-generic', version='#74-Ubuntu SMP Wed Jan 27 22:54:38 UTC 2021', machine='x86_64', processor='x86_64')  Threads 128
Python 3.7.3 (default, Mar 27 2019, 22:11:17) 
[GCC 7.3.0]
numpy 1.20.1  scipy 1.7.3
Date: Mon Dec 19 18:11:00 2022
PySCF version 2.0.1
PySCF path  /home/nkousuke/application/anaconda3/lib/python3.7/site-packages/pyscf

[CONFIG] conf_file /home/nkousuke/.pyscf_conf.py
[INPUT] verbose = 5
[INPUT] max_memory = 507463.0390625 
[INPUT] num. atoms = 4
[INPUT] num. electrons = 12
[INPUT] charge = 0
[INPUT] spin (= nelec alpha-beta = 2S) = 0
[INPUT] symmetry False subgroup None
[INPUT] Mole.unit = A
[INPUT]  1 O      0.000000000000   0.000000000000   0.674170000000 AA    0.000000000000   0.000000000000   1.273996661398 Bohr
[INPUT]  2 C      0.000000000000   0.000000000000  -0.529630000000 AA    0.000000000000   0.000000000000  -1.000855647353 Bohr
[INPUT]  3 H      0.000000000000   0.936150000000  -1.107800000000 AA    0.000000000000   1.769067111512  -2.093438600793 Bohr
[INPUT]  4 H      0.000000000000  -0.936150000000  -1.107800000000 AA    0.000000000000  -1.769067111512  -2.093438600793 Bohr
[INPUT] ---------------- BASIS SET ---------------- 
[INPUT] l, kappa, [nprim/nctr], expnt,             c_1 c_2 ...
[INPUT] C
[INPUT] 0    0    [9    /1   ]  13.073594         0.0051583
                                6.541187          0.0603424
                                4.573411          -0.1978471
                                1.637494          -0.081034
                                0.819297          0.2321726
                                0.409924          0.2914643
                                0.2313            0.4336405
                                0.102619          0.213194
                                0.051344          0.0049848
[INPUT] 0    0    [1    /1   ]  0.846879             1
[INPUT] 0    0    [1    /1   ]  0.269659             1
[INPUT] 0    0    [1    /1   ]  0.109576             1
[INPUT] 1    0    [9    /1   ]  9.934169          0.0209076
                                3.886955          0.0572698
                                1.871016          0.1122682
                                0.935757          0.2130082
                                0.468003          0.2835815
                                0.239473          0.3011207
                                0.117063          0.2016934
                                0.058547          0.0453575
                                0.029281          0.0029775
[INPUT] 1    0    [1    /1   ]  0.804681             1
[INPUT] 1    0    [1    /1   ]  0.313254             1
[INPUT] 1    0    [1    /1   ]  0.105389             1
[INPUT] 2    0    [1    /1   ]  2.01376              1
[INPUT] 2    0    [1    /1   ]  0.684884             1
[INPUT] 2    0    [1    /1   ]  0.240171             1
[INPUT] 3    0    [1    /1   ]  0.457302             1
[INPUT] 3    0    [1    /1   ]  1.32493              1
[INPUT] 4    0    [1    /1   ]  1.03418              1
[INPUT] H
[INPUT] 0    0    [8    /1   ]  23.843185         0.0041149
                                10.212443         0.0104644
                                4.374164          0.0280111
                                1.873529          0.0758862
                                0.802465          0.1821062
                                0.343709          0.3485214
                                0.147217          0.3782313
                                0.063055          0.1164241
[INPUT] 0    0    [1    /1   ]  0.081856             1
[INPUT] 0    0    [1    /1   ]  0.233254             1
[INPUT] 0    0    [1    /1   ]  0.664673             1
[INPUT] 1    0    [1    /1   ]  0.284469             1
[INPUT] 1    0    [1    /1   ]  0.847159             1
[INPUT] 1    0    [1    /1   ]  2.522868             1
[INPUT] 2    0    [1    /1   ]  0.665279             1
[INPUT] 2    0    [1    /1   ]  2.048739             1
[INPUT] 3    0    [1    /1   ]  1.42146              1
[INPUT] O
[INPUT] 0    0    [9    /1   ]  54.775216         -0.0012444
                                25.616801         0.010733
                                11.980245         0.0018889
                                6.992317          -0.1742537
                                2.620277          0.0017622
                                1.225429          0.3161846
                                0.577797          0.4512023
                                0.268022          0.3121534
                                0.125346          0.0511167
[INPUT] 0    0    [1    /1   ]  1.351771             1
[INPUT] 0    0    [1    /1   ]  0.843157             1
[INPUT] 0    0    [1    /1   ]  0.22438              1
[INPUT] 1    0    [9    /1   ]  22.217266         0.0104866
                                10.74755          0.0366435
                                5.315785          0.0803674
                                2.660761          0.162701
                                1.331816          0.2377791
                                0.678626          0.2811422
                                0.333673          0.2643189
                                0.167017          0.1466014
                                0.083598          0.0458145
[INPUT] 1    0    [1    /1   ]  1.106737             1
[INPUT] 1    0    [1    /1   ]  0.452364             1
[INPUT] 1    0    [1    /1   ]  0.148562             1
[INPUT] 2    0    [1    /1   ]  4.008867             1
[INPUT] 2    0    [1    /1   ]  1.344331             1
[INPUT] 2    0    [1    /1   ]  0.455711             1
[INPUT] 3    0    [1    /1   ]  2.763115             1
[INPUT] 3    0    [1    /1   ]  0.876289             1
[INPUT] 4    0    [1    /1   ]  1.759081             1

nuclear repulsion = 17.834991476811
number of shells = 48
number of NR pGTOs = 246
number of NR cGTOs = 168
basis = ccecp-ccpvqz
ecp = ccecp
CPU time:         6.86


******** <class 'pyscf.scf.hf.RHF'> ********
method = RHF
initial guess = minao
damping factor = 0
level_shift factor = 0
DIIS = <class 'pyscf.scf.diis.CDIIS'>
diis_start_cycle = 1
diis_space = 8
SCF conv_tol = 1e-09
SCF conv_tol_grad = None
SCF max_cycles = 200
direct_scf = True
direct_scf_tol = 1e-13
chkfile to save SCF result = pyscf.chk
max_memory 507463 MB (current use 106 MB)
Set gradient conv threshold to 3.16228e-05
E1 = -69.8282340513481  E_coul = 29.85777342305394
init E= -22.1354691514831
cond(S) = 40120.663685784384
    CPU time for initialize scf    179.79 sec, wall time      1.56 sec
  HOMO = -0.341412343267069  LUMO = -0.0454653873904585
  mo_energy =
[-1.79196993 -0.97408694 -0.66426275 -0.61772844 -0.58274553 -0.34141234
 -0.04546539  0.10401863  0.16189403  0.18200164  0.32050384  0.33697124
  0.34390066  0.39307554  0.4224856   0.47429437  0.48735569  0.53706077
  0.54477476  0.54547275  0.7417225   0.75766752  0.79890054  0.86326161
  0.90318345  0.91363501  0.96651517  0.96827765  1.07549167  1.10854265
  1.18814489  1.27098756  1.37247624  1.44585976  1.45723166  1.56350818
  1.57149403  1.61020438  1.61377058  1.86252924  1.90411145  1.92067805
  1.9250381   1.97101656  1.97446561  2.0031848   2.04658498  2.10377004
  2.15784305  2.22037572  2.33038075  2.35716455  2.37346887  2.53722336
  2.54177444  2.58075129  2.64548521  2.70785127  2.7258735   2.73553501
  2.77152561  2.89448126  2.90360016  3.18352882  3.21043007  3.23093926
  3.2386315   3.53629644  3.58717325  3.58864628  3.5936128   3.66821739
  3.71674814  3.87712306  4.01421939  4.06653216  4.20087529  4.29042315
  4.34794221  4.35641007  4.53737456  4.56472196  4.64283125  4.69786693
  4.86897522  5.41110256  5.44429603  5.48276295  5.52422778  5.57392279
  5.67984434  5.68291235  5.76154146  5.77001064  5.7922397   5.86686249
  5.91623708  6.0468699   6.0780405   6.11543222  6.32434458  6.36288084
  6.38615471  6.41429193  6.58748888  6.6720203   6.71523288  6.76803676
  6.94800208  7.13117484  7.22104755  7.28429314  7.32556054  7.34078255
  7.43186966  7.61245063  7.81582278  7.89171406  7.89870094  7.92401714
  7.93782249  7.94253904  8.03372575  8.11669234  8.16445652  8.26673446
  8.37070337  8.48052555  8.49424441  8.54758125  8.54955652  8.7790956
  8.78094255  8.78390638  8.83116586  8.90588202  9.04937201  9.32962172
  9.41611432  9.54375242  9.78315273  9.93044183 10.00368871 10.15135591
 10.19623668 10.2848474  10.4303326  10.46528269 10.53675826 10.74147219
 10.97422912 11.14997205 11.61167863 11.74287664 11.765968   12.10353804
 12.28550612 12.47947362 12.61191331 12.90887985 13.02979894 13.11423282
 13.22636727 14.00248469 14.43130128 14.59332856 20.05927571 32.76340076]
E1 = -71.71712385631832  E_coul = 31.544080480241647
cycle= 1 E= -22.3380518992657  delta_E= -0.203  |g|= 0.646  |ddm|= 3.41
    CPU time for cycle= 1     36.57 sec, wall time      0.36 sec
  HOMO = -0.34785561472879  LUMO = 0.0854271204322699
  mo_energy =
[-1.34869109 -0.93308794 -0.73487175 -0.54077586 -0.4829541  -0.34785561
  0.08542712  0.08700228  0.13541179  0.2191013   0.29826444  0.32494264
  0.36348366  0.40556449  0.4584072   0.47480475  0.50346646  0.59125166
  0.60080416  0.61237989  0.72281874  0.75063022  0.76265955  0.86176145
  0.87311203  0.94240226  0.99764337  1.00964971  1.07440802  1.12901926
  1.16858497  1.33581064  1.42910188  1.46937498  1.50853179  1.56648103
  1.6943803   1.70263672  1.73757193  1.81857307  1.8652376   1.89270926
  1.90424313  1.95400989  1.95971796  1.96285099  2.02570317  2.18553228
  2.26911553  2.2838243   2.31161219  2.33507822  2.3839074   2.5174568
  2.5474295   2.5488336   2.61669411  2.70395806  2.73908762  2.74605174
  2.78672909  2.86307782  3.05138834  3.19655092  3.23128208  3.24045063
  3.27667956  3.53581331  3.54090871  3.58463597  3.61707608  3.81526769
  3.84864318  3.87961718  4.09750476  4.19821025  4.40980954  4.49215519
  4.63489517  4.6412849   4.66799252  4.75065859  4.82483603  4.86518293
  5.00026228  5.37626347  5.39400036  5.42982381  5.46238263  5.60120338
  5.61524218  5.65039361  5.69910867  5.71804179  5.75358493  5.88681798
  5.9378647   6.01374624  6.07376866  6.11374033  6.33190887  6.34720013
  6.3555156   6.36775918  6.54765471  6.64669554  6.74453312  6.77115311
  6.99263932  7.16777048  7.21603707  7.35650913  7.37261377  7.5245858
  7.57369415  7.69152133  7.78256623  7.85175548  7.87697067  7.88279356
  7.89011258  7.89094926  8.12506732  8.17306665  8.17566037  8.23386165
  8.32782058  8.45746309  8.46927692  8.49892914  8.5104188   8.79693799
  8.83710827  8.91214426  9.09207041  9.10752694  9.29148627  9.45503123
  9.45737739  9.70616325  9.78239013 10.03237796 10.14179057 10.20921591
 10.21326778 10.42008007 10.4746901  10.49324885 10.77763861 10.79892948
 11.14822405 11.22715198 11.76464465 12.16195823 12.17923737 12.51810949
 12.59895501 12.6856093  12.88923286 13.27478808 13.497715   13.56721502
 13.59961397 14.41669788 14.84333805 14.97226699 19.99014201 33.34164625]
E1 = -70.69867957904111  E_coul = 30.486028112624574
cycle= 2 E= -22.3776599896055  delta_E= -0.0396  |g|= 0.549  |ddm|= 1.23
    CPU time for cycle= 2     76.56 sec, wall time      0.64 sec
  HOMO = -0.442281273123882  LUMO = 0.0942713018704337
  mo_energy =
[-1.43318464 -0.8871542  -0.70398116 -0.65325701 -0.54824214 -0.44228127
  0.0942713   0.10700329  0.15173208  0.22008449  0.31717723  0.35136224
  0.35991161  0.43622256  0.44818827  0.50910203  0.53845522  0.54921366
  0.58356796  0.60657466  0.74533104  0.7660535   0.78841629  0.86932813
  0.89600569  0.94407048  0.99181606  1.03090453  1.09403813  1.10669956
  1.20175201  1.31652457  1.4353316   1.46407462  1.51442204  1.57513686
  1.64997925  1.67286919  1.6948498   1.86542719  1.92572196  1.92674253
  1.93493972  1.98341939  1.99602613  2.00399215  2.06213861  2.19466929
  2.20358572  2.27904658  2.34392565  2.36752433  2.39285415  2.55950514
  2.56253338  2.5696038   2.64890401  2.73017156  2.74462295  2.76030284
  2.76726072  2.89308052  2.99557146  3.21454044  3.23437155  3.26049402
  3.27100737  3.59277827  3.59339229  3.61258348  3.62311185  3.75699331
  3.80726077  3.89828448  4.10984609  4.12026877  4.31870059  4.40753336
  4.4880125   4.50642931  4.62670308  4.67271415  4.74918429  4.8093009
  4.96581534  5.45125092  5.46650842  5.51279391  5.55083928  5.66341303
  5.69985944  5.70008866  5.77416352  5.78563082  5.82443177  5.92612036
  5.97170167  6.08401432  6.12951177  6.17439831  6.38696684  6.38874915
  6.40407497  6.42053497  6.6107569   6.71406148  6.7875693   6.7988944
  7.00594241  7.20053953  7.3167817   7.32555645  7.42190551  7.44753846
  7.4782984   7.68049313  7.83273644  7.89592103  7.93187615  7.93343534
  7.93607912  7.93952281  8.11547755  8.16810148  8.17166671  8.27701911
  8.39488048  8.50618162  8.51730679  8.5587573   8.57896354  8.85392646
  8.8932192   8.91191586  8.93852215  8.96903801  9.183117    9.40620731
  9.47789637  9.65579774  9.82788818 10.00553408 10.13308727 10.20504688
 10.2486627  10.3854245  10.4820704  10.53506086 10.66761645 10.83291295
 11.0770787  11.23276853 11.72666827 11.93236555 11.95288305 12.29592103
 12.47343164 12.6655917  12.67713365 13.08960059 13.23099938 13.31034005
 13.4120693  14.18621232 14.62868025 14.78229074 20.13229696 32.9931842 ]
E1 = -71.31740274961889  E_coul = 31.051512121915447
cycle= 3 E= -22.4308991508924  delta_E= -0.0532  |g|= 0.044  |ddm|= 0.593
    CPU time for cycle= 3     76.37 sec, wall time      0.61 sec
  HOMO = -0.436366977583818  LUMO = 0.110078815303578
  mo_energy =
[-1.4172878  -0.87462371 -0.69401187 -0.64636329 -0.53689278 -0.43636698
  0.11007882  0.11061593  0.15436093  0.22334088  0.32153486  0.35722854
  0.36163475  0.4373023   0.45653875  0.51903968  0.54536042  0.55409673
  0.58393058  0.61632215  0.75255869  0.77145244  0.79320918  0.87417487
  0.90196058  0.94951961  0.99728421  1.04111337  1.09929288  1.11303115
  1.21074018  1.32257573  1.44058357  1.47190898  1.51938135  1.58515977
  1.65555727  1.67941052  1.6994253   1.87393039  1.9347835   1.93754294
  1.94309398  1.99202845  2.00481667  2.01428891  2.07099341  2.20713796
  2.21331983  2.28757236  2.35360178  2.37553902  2.40165118  2.56873678
  2.57198337  2.57812021  2.65803198  2.73945611  2.75261267  2.76914636
  2.77569501  2.90137306  3.00170866  3.22345721  3.24482505  3.27014918
  3.27909839  3.604144    3.60475429  3.62464207  3.6350266   3.76487585
  3.81498437  3.90949318  4.12088405  4.1322687   4.3323121   4.42148266
  4.49659582  4.51712309  4.63544933  4.68474298  4.76052385  4.81770864
  4.97668676  5.46417416  5.4791749   5.52724909  5.56520955  5.67889846
  5.713382    5.71350765  5.78852126  5.79992614  5.83718332  5.94056452
  5.98674331  6.09847221  6.1441057   6.189887    6.40260532  6.40425356
  6.41704532  6.43326405  6.62463088  6.72918238  6.80389935  6.81403242
  7.02208358  7.21508015  7.33088521  7.34088829  7.43812643  7.46478685
  7.49600447  7.6959853   7.84732188  7.90878116  7.94674139  7.94713592
  7.95091803  7.95387632  8.13271962  8.18167684  8.18793638  8.29108274
  8.41122311  8.52206682  8.53325159  8.57442431  8.59524745  8.87195616
  8.90925647  8.92728853  8.94977856  8.98196258  9.19648368  9.42128065
  9.4939273   9.67457205  9.84591238 10.02333513 10.14997632 10.22148524
 10.26487842 10.4007987  10.50068335 10.55280539 10.68536332 10.85120189
 11.09425004 11.25171249 11.74317741 11.95071423 11.97107357 12.31474196
 12.49263293 12.68255471 12.69568601 13.11031602 13.2544629  13.33344945
 13.43474387 14.20997441 14.65402947 14.80748114 20.15069903 33.02722881]
E1 = -71.25354049811217  E_coul = 30.98676059309519
cycle= 4 E= -22.431788428206  delta_E= -0.000889  |g|= 0.0175  |ddm|= 0.0878
    CPU time for cycle= 4     45.40 sec, wall time      0.36 sec
  HOMO = -0.442391883156919  LUMO = 0.10757298928091
  mo_energy =
[-1.42479086 -0.87672023 -0.69755289 -0.65271746 -0.54037681 -0.44239188
  0.10757299  0.11070256  0.15434478  0.22254858  0.32122348  0.35547013
  0.36082636  0.43605737  0.45613344  0.51782396  0.54467923  0.55258145
  0.58275267  0.61423846  0.7517676   0.77038597  0.79314374  0.87324118
  0.90155169  0.94828818  0.99545565  1.03836752  1.09741692  1.11227367
  1.20991536  1.32031223  1.43762029  1.47130691  1.5165609   1.58236384
  1.65236244  1.6768843   1.69661465  1.87238463  1.93313553  1.93628478
  1.94149377  1.99093352  2.00246541  2.0131379   2.06899463  2.20259916
  2.2107914   2.28470082  2.35192897  2.37525393  2.399596    2.56709948
  2.57232584  2.57682031  2.65719674  2.73868643  2.75140646  2.76593402
  2.77538244  2.90055212  2.99839929  3.22146722  3.2427143   3.26818757
  3.27723704  3.60142962  3.6028039   3.62294865  3.63282128  3.76092873
  3.81085927  3.90753027  4.11916517  4.12656555  4.32575537  4.4152307
  4.49123644  4.5113413   4.63149129  4.679656    4.75610256  4.8135834
  4.97293227  5.45997361  5.47624084  5.52432099  5.56249671  5.67360288
  5.70951373  5.71074017  5.78535573  5.79720686  5.83282991  5.93661351
  5.98290368  6.09643585  6.13981752  6.1866744   6.39996511  6.40056156
  6.41573128  6.4325883   6.62252678  6.7265293   6.79899334  6.81224467
  7.01793031  7.21202392  7.32662526  7.33626946  7.43432572  7.4590967
  7.4901735   7.69245023  7.84685226  7.90810004  7.94415701  7.94689804
  7.95038524  7.95395087  8.12810997  8.18125502  8.18300094  8.29005752
  8.41044693  8.5219206   8.53205597  8.57444944  8.5931935   8.86818517
  8.90680317  8.92453706  8.94249449  8.97716451  9.19038959  9.41760022
  9.49121809  9.66845136  9.84425712 10.01957524 10.14242832 10.21928516
 10.26179524 10.39504331 10.49855834 10.54992492 10.67757874 10.8469403
 11.09013032 11.24740159 11.7387374  11.94062601 11.96112745 12.30550423
 12.48362091 12.67352896 12.69301976 13.10264684 13.24295924 13.32221678
 13.42520152 14.19873972 14.64422161 14.79759982 20.14377523 33.01275537]
E1 = -71.27685052132419  E_coul = 31.00993729416824
cycle= 5 E= -22.4319217503449  delta_E= -0.000133  |g|= 0.00657  |ddm|= 0.0354
    CPU time for cycle= 5     82.35 sec, wall time      0.70 sec
  HOMO = -0.443116707292074  LUMO = 0.108585344293252
  mo_energy =
[-1.42378545 -0.87544679 -0.69653762 -0.65254236 -0.53787895 -0.44311671
  0.10858534  0.11096366  0.1545462   0.22257761  0.32153517  0.35598802
  0.36082409  0.43594238  0.45680076  0.51860548  0.54529743  0.55292071
  0.58254565  0.61477878  0.75235816  0.77096969  0.79344127  0.87368555
  0.90221384  0.94848897  0.9955931   1.03903356  1.09766545  1.11292936
  1.21052317  1.32056196  1.43785127  1.4719813   1.5165866   1.58420004
  1.65254325  1.67722315  1.69672699  1.87368401  1.93410241  1.93748235
  1.94258088  1.99141312  2.00358237  2.01415878  2.070093    2.20339199
  2.21147111  2.28516679  2.35315073  2.37572985  2.39994475  2.56767927
  2.57266216  2.57717817  2.65797354  2.73895875  2.75158204  2.76630612
  2.77576541  2.90118815  2.99852093  3.22194767  3.24319431  3.26879369
  3.27751016  3.60220253  3.6040704   3.62370899  3.63366624  3.76081312
  3.81070891  3.90856485  4.11965543  4.12678435  4.32597861  4.41566407
  4.49085399  4.51142706  4.63199967  4.67998798  4.75649748  4.81424402
  4.97364566  5.46225946  5.47831296  5.52619618  5.56421917  5.67473458
  5.71252621  5.71283675  5.78758259  5.79905039  5.83532401  5.93794416
  5.9841379   6.09749465  6.14144968  6.18784227  6.40135183  6.40158426
  6.41654124  6.43332094  6.62368047  6.72777873  6.80029146  6.8130643
  7.01910073  7.21299682  7.32924005  7.33719927  7.43519789  7.45973129
  7.49093404  7.69336992  7.84721826  7.90852875  7.94521759  7.94719316
  7.95081173  7.95449225  8.12874611  8.18151145  8.18429226  8.29049497
  8.41115178  8.52221834  8.53264318  8.57466243  8.59445312  8.86954934
  8.90676972  8.92470827  8.94180537  8.97685678  9.19032611  9.41778603
  9.49182596  9.66947147  9.84463959 10.0199619  10.14257986 10.22031336
 10.26277088 10.39549998 10.49945221 10.55066048 10.67809356 10.84806026
 11.09094064 11.24834272 11.73977652 11.94018882 11.96068409 12.30558187
 12.48386295 12.67330014 12.69417059 13.10376981 13.24298046 13.32225705
 13.42605091 14.19901564 14.64539781 14.79885655 20.14761705 33.01363818]
E1 = -71.26927126731651  E_coul = 31.002314359046597
cycle= 6 E= -22.4319654314589  delta_E= -4.37e-05  |g|= 0.00148  |ddm|= 0.0269
    CPU time for cycle= 6     66.54 sec, wall time      0.53 sec
  HOMO = -0.443672186612364  LUMO = 0.108640380069479
  mo_energy =
[-1.42450268 -0.87556923 -0.69674586 -0.65319249 -0.53837467 -0.44367219
  0.10864038  0.11106641  0.15465248  0.22248327  0.32162631  0.35589938
  0.36076184  0.43574037  0.45691682  0.51866737  0.54540258  0.55271555
  0.58232452  0.61469785  0.75247439  0.77097672  0.79358122  0.87368489
  0.90234478  0.94844031  0.99551689  1.03901161  1.09749027  1.11302527
  1.21062991  1.32036581  1.43752531  1.47210885  1.51621586  1.58418072
  1.65213419  1.67699588  1.69631611  1.87377956  1.93412806  1.93765501
  1.9426339   1.99148168  2.00354956  2.01433005  2.07011241  2.20302759
  2.21137881  2.28498021  2.35323051  2.37588785  2.39987647  2.56768942
  2.57292212  2.57718335  2.65808005  2.73906925  2.75160759  2.76604608
  2.77590844  2.90131996  2.99805732  3.22189993  3.24318733  3.26876377
  3.27742343  3.60203666  3.60422368  3.62377466  3.63364685  3.76035183
  3.81021364  3.9086253   4.11963358  4.12627849  4.32536918  4.41509339
  4.49008089  4.51068699  4.63154213  4.67951654  4.75603472  4.81371188
  4.97329505  5.46211408  5.47838417  5.52626645  5.56432343  5.67440436
  5.71251734  5.71295167  5.78767332  5.79917139  5.83524369  5.93781228
  5.98401686  6.09753057  6.14133197  6.18778707  6.40124674  6.40163436
  6.41665462  6.43351539  6.6237657   6.72781993  6.8000561   6.81315686
  7.01896769  7.21289037  7.32916149  7.33680248  7.43505053  7.45934335
  7.49061593  7.69321113  7.84740291  7.9087008   7.94515662  7.94742726
  7.95099486  7.954752    8.12849919  8.18167668  8.18406895  8.29062113
  8.41133765  8.52244536  8.53276338  8.57489935  8.59453318  8.86944248
  8.90662328  8.9245398   8.94092402  8.9764072   9.18968373  9.41753654
  9.49176381  9.66907238  9.84472513 10.01978556 10.14192592 10.22036783
 10.26273692 10.39503696 10.49951072 10.55061638 10.67745219 10.84789621
 11.0906139  11.24812639 11.73941239 11.93917248 11.95967903 12.30463184
 12.48297049 12.67227517 12.69413823 13.10304737 13.2419541  13.32126072
 13.42525181 14.19808277 14.64462286 14.79805433 20.14718493 33.01256674]
E1 = -71.27011858802597  E_coul = 31.00316029049264
cycle= 7 E= -22.4319668207223  delta_E= -1.39e-06  |g|= 0.00019  |ddm|= 0.00514
    CPU time for cycle= 7     92.05 sec, wall time      0.75 sec
  HOMO = -0.443630894124045  LUMO = 0.108650220889368
  mo_energy =
[-1.42449959 -0.87552995 -0.69671149 -0.65316453 -0.53834469 -0.44363089
  0.10865022  0.11107873  0.15466792  0.22248158  0.3216423   0.35590413
  0.36075911  0.43573433  0.4569436   0.51869648  0.54542572  0.55269877
  0.58231632  0.61471542  0.75249592  0.77098966  0.79360008  0.87369466
  0.90236516  0.94844759  0.99552578  1.03903777  1.09749827  1.11305126
  1.21065903  1.32037268  1.43752726  1.47213492  1.51620837  1.58421642
  1.6521362   1.6770001   1.69631445  1.87381134  1.93415273  1.93769583
  1.94265917  1.99150705  2.0035725   2.01436352  2.07013683  2.20303631
  2.21140658  2.28499815  2.35326929  2.37591488  2.3998969   2.56771382
  2.57295597  2.57720275  2.65811431  2.73909595  2.75162826  2.76605239
  2.77593549  2.90134784  2.99806339  3.22192019  3.24321386  3.26878736
  3.27743664  3.60206237  3.60426553  3.62381043  3.63368016  3.76034522
  3.81020569  3.90866114  4.11966273  4.12627873  4.32537778  4.41511017
  4.49007612  4.51069107  4.63156485  4.67952836  4.75604942  4.81373222
  4.97331888  5.46216735  5.47843456  5.52632105  5.56437579  5.67443755
  5.71258172  5.71300634  5.78773341  5.79922786  5.83529339  5.93784797
  5.98405282  6.09757298  6.14137652  6.18782886  6.40128868  6.40167562
  6.41669501  6.43355426  6.6238105   6.72786605  6.80009539  6.81319753
  7.01900393  7.21292661  7.32922548  7.33684401  7.43509115  7.45937346
  7.49065047  7.69325405  7.84744021  7.90873592  7.945202    7.94746689
  7.95103583  7.95479644  8.12853007  8.18171459  8.18411434  8.29065565
  8.41138117  8.52248461  8.53280106  8.57493777  8.59458198  8.86948866
  8.90664594  8.92456553  8.94090707  8.97641308  9.18968914  9.41755864
  9.4917993   9.66910517  9.84476417 10.01981949 10.14194477 10.22041175
 10.26278093 10.39505848 10.49955629 10.55065473 10.67747526 10.84793258
 11.09064856 11.24816904 11.7394478  11.93917928 11.95968641 12.30465418
 12.48299326 12.67230965 12.69418922 13.1030822  13.2419783  13.32128563
 13.42528747 14.19812307 14.64466175 14.79810449 20.14727092 33.01261626]
E1 = -71.26995349423123  E_coul = 31.002995175773158
cycle= 8 E= -22.4319668416471  delta_E= -2.09e-08  |g|= 5.48e-05  |ddm|= 0.000605
    CPU time for cycle= 8     70.62 sec, wall time      0.57 sec
  HOMO = -0.443634617679997  LUMO = 0.108637878791811
  mo_energy =
[-1.42451755 -0.87554059 -0.69672072 -0.65318283 -0.53836207 -0.44363462
  0.10863788  0.1110783   0.15466927  0.22247884  0.32164041  0.35589709
  0.36075743  0.43572985  0.4569396   0.51869179  0.54542287  0.55268979
  0.58231338  0.61470827  0.75249172  0.77098649  0.7935998   0.87369204
  0.90236261  0.94844443  0.9955226   1.03902837  1.0974914   1.11304965
  1.2106559   1.3203662   1.43751916  1.47213175  1.51620028  1.58420504
  1.6521255   1.67699218  1.69630529  1.87380527  1.93414456  1.93768837
  1.94265355  1.99150245  2.0035654   2.01435538  2.07013027  2.20302092
  2.2113956   2.28499054  2.35326226  2.37591396  2.39989181  2.56770953
  2.57295597  2.57719934  2.65811042  2.73909377  2.75162569  2.76604272
  2.77593418  2.90134527  2.99805081  3.22191596  3.24320777  3.26878153
  3.27743176  3.60205278  3.60425967  3.62380329  3.63367295  3.76033546
  3.81019536  3.90865485  4.11965503  4.12626702  4.32536239  4.41509407
  4.49005943  4.5106732   4.63155078  4.6795151   4.75603598  4.81371833
  4.97330612  5.46215343  5.4784228   5.52630768  5.56436323  5.67442032
  5.71256629  5.71299416  5.78771854  5.79921334  5.83528038  5.93783666
  5.98404275  6.09756441  6.14136271  6.18781526  6.40127576  6.40166806
  6.41668881  6.43354976  6.62380189  6.7278545   6.80008136  6.81319108
  7.01899208  7.21291463  7.32921062  7.33682597  7.43507607  7.45935637
  7.4906337   7.69324161  7.84743577  7.90873406  7.94519172  7.94746657
  7.95103257  7.95479442  8.12851677  8.1817116   8.18409992  8.29065291
  8.41137496  8.52248091  8.53279415  8.57493438  8.59457184  8.86947404
  8.90663607  8.92455608  8.94088996  8.97640076  9.18967481  9.41754885
  9.49178966  9.66908812  9.84475499 10.01980726 10.1419306  10.22040314
 10.26277052 10.39504466 10.49954551 10.55064433 10.67745915 10.84791946
 11.09063244 11.24815488 11.73943073 11.93915267 11.95966003 12.30462872
 12.48296834 12.67228515 12.69417616 13.10305745 13.24194582 13.32125407
 13.42526388 14.19809522 14.64463228 14.79807575 20.14724634 33.01257101]
E1 = -71.27001096303448  E_coul = 31.003052643246416
cycle= 9 E= -22.431966842977  delta_E= -1.33e-09  |g|= 8.68e-06  |ddm|= 0.000168
    CPU time for cycle= 9     83.36 sec, wall time      0.65 sec
  HOMO = -0.443633456498782  LUMO = 0.108639347647231
  mo_energy =
[-1.42451744 -0.87553965 -0.69672012 -0.65318397 -0.53836295 -0.44363346
  0.10863935  0.11107863  0.15466979  0.22247894  0.32164078  0.35589701
  0.36075742  0.43572954  0.45694016  0.51869257  0.54542329  0.55268975
  0.58231323  0.61470898  0.75249233  0.77098657  0.79360023  0.87369208
  0.90236309  0.94844473  0.99552295  1.03902906  1.09749139  1.11305028
  1.21065677  1.32036633  1.43751891  1.47213232  1.51619987  1.58420544
  1.65212539  1.67699218  1.69630507  1.87380578  1.9341452   1.93768934
  1.94265383  1.99150305  2.00356558  2.01435642  2.07013049  2.20302129
  2.21139641  2.28499103  2.353263    2.37591448  2.39989228  2.56771012
  2.57295692  2.5771998   2.65811122  2.73909461  2.75162629  2.76604283
  2.77593487  2.90134583  2.99805089  3.22191636  3.24320848  3.26878202
  3.27743208  3.60205333  3.60426047  3.6238044   3.6336736   3.76033502
  3.81019484  3.90865546  4.11965577  4.12626673  4.32536237  4.41509433
  4.49005913  4.51067315  4.63155135  4.67951536  4.75603618  4.81371872
  4.9733067   5.46215409  5.47842343  5.52630904  5.5643645   5.67442142
  5.71256721  5.71299517  5.78772027  5.79921524  5.83528074  5.9378371
  5.98404329  6.09756517  6.14136351  6.18781646  6.40127668  6.40166875
  6.4166897   6.43355056  6.62380293  6.7278556   6.80008211  6.81319199
  7.01899283  7.2129154   7.32921159  7.33682716  7.43507744  7.45935732
  7.49063471  7.6932429   7.84743689  7.90873496  7.94519308  7.94746767
  7.95103366  7.95479557  8.12851764  8.18171281  8.18410116  8.29065368
  8.41137589  8.52248193  8.53279493  8.57493546  8.59457288  8.86947521
  8.90663654  8.92455656  8.9408889   8.97640051  9.18967461  9.41754919
  9.49179046  9.66908903  9.84475626 10.01980833 10.14193086 10.22040407
 10.26277149 10.39504512 10.49954664 10.5506452  10.6774597  10.84792033
 11.09063341 11.24815579 11.73943166 11.93915236 11.95965974 12.30462926
 12.4829689  12.67228625 12.69417749 13.10305856 13.24194653 13.32125478
 13.42526524 14.19809674 14.64463376 14.79807774 20.14724794 33.01257392]
E1 = -71.2700014342033  E_coul = 31.003043114372936
cycle= 10 E= -22.4319668430193  delta_E= -4.23e-11  |g|= 1.37e-06  |ddm|= 2.94e-05
    CPU time for cycle= 10     46.34 sec, wall time      0.36 sec
  HOMO = -0.443633320265678  LUMO = 0.10863933901963
  mo_energy =
[-1.42451733 -0.87553979 -0.69672015 -0.6531841  -0.53836291 -0.44363332
  0.10863934  0.11107861  0.15466978  0.22247895  0.32164075  0.35589693
  0.36075745  0.43572952  0.45694008  0.51869254  0.54542326  0.5526898
  0.58231325  0.61470896  0.75249231  0.77098654  0.79360023  0.87369206
  0.90236307  0.94844476  0.99552299  1.039029    1.09749136  1.11305024
  1.21065674  1.32036633  1.43751891  1.47213228  1.51619991  1.58420526
  1.65212539  1.67699217  1.69630508  1.8738057   1.93414513  1.93768924
  1.9426538   1.99150303  2.00356551  2.01435634  2.07013042  2.20302137
  2.21139633  2.28499103  2.35326291  2.37591447  2.3998923   2.5677101
  2.57295691  2.57719981  2.65811116  2.73909461  2.75162631  2.76604283
  2.77593487  2.90134581  2.99805091  3.22191634  3.24320847  3.26878198
  3.27743208  3.60205329  3.60426038  3.62380433  3.63367353  3.76033505
  3.81019488  3.90865538  4.11965576  4.12626679  4.32536245  4.41509441
  4.49005926  4.51067325  4.63155131  4.6795154   4.75603625  4.8137187
  4.97330666  5.46215383  5.47842327  5.52630885  5.56436432  5.67442135
  5.71256693  5.71299498  5.78772004  5.79921506  5.83528053  5.93783699
  5.98404321  6.09756506  6.14136336  6.18781632  6.40127658  6.40166866
  6.41668965  6.43355053  6.62380282  6.72785547  6.80008205  6.81319195
  7.01899278  7.21291531  7.32921128  7.33682714  7.43507741  7.45935743
  7.49063475  7.69324288  7.84743689  7.90873496  7.94519298  7.94746769
  7.95103367  7.95479555  8.1285177   8.18171282  8.18410107  8.29065368
  8.41137585  8.52248196  8.53279493  8.57493548  8.59457275  8.86947505
  8.90663656  8.92455661  8.94088898  8.97640057  9.1896747   9.41754924
  9.49179046  9.66908905  9.84475625 10.01980839 10.14193095 10.22040402
 10.26277144 10.39504518 10.49954656 10.55064517 10.6774598  10.84792026
 11.09063347 11.24815576 11.73943166 11.93915254 11.95965992 12.30462951
 12.48296913 12.67228658 12.69417737 13.10305876 13.2419468  13.32125504
 13.42526549 14.19809705 14.64463402 14.79807798 20.14724734 33.01257442]
E1 = -71.27000050715492  E_coul = 31.00304218732373
Extra cycle  E= -22.4319668430202  delta_E= -8.31e-13  |g|= 7.01e-07  |ddm|= 2.92e-06
    CPU time for scf_cycle    941.77 sec, wall time      7.77 sec
    CPU time for SCF    941.78 sec, wall time      7.77 sec
converged SCF energy = -22.4319668430202
