#INFO: **** input file is /home/nkousuke/lustre/toBeSync/turboRVB/05turbo-genius-development/turbogenius_paper/04data/sanity_checks/02pyscf_prep_LDA_via_trexio/00open_boundary/results/HF/pyscf-LDA-workflow/run.py ****

from pyscf_wrapper import Pyscf_wrapper

# input variables
pyscf_chkfile="pyscf.chk"
structure_file="HF.xyz"

# input variables
omp_num_threads=128
charge=0
spin=0
basis="ccecp-ccpvqz"
ecp="ccecp"
scf_method="DFT"
dft_xc="LDA_X,LDA_C_PZ"
solver_newton=False
MP2_flag=False
CCSD_flag=False
pyscf_output="out.pyscf"
twist_average=False
exp_to_discard=0.1
kpt=[0.0, 0.0, 0.0]
kpt_grid=[1, 1, 1]
smearing_method="fermi"
smearing_sigma=0.0

pyscf_calc=Pyscf_wrapper(
                        structure_file=structure_file,
                        chkfile=pyscf_chkfile,
                        )

pyscf_calc.run_pyscf(
                  omp_num_threads=omp_num_threads,
                  charge=charge,
                  spin=spin,
                  basis=basis,
                  ecp=ecp,
                  scf_method=scf_method,
                  dft_xc=dft_xc,
                  solver_newton=solver_newton,
                  MP2_flag=MP2_flag,
                  CCSD_flag=CCSD_flag,
                  pyscf_output=pyscf_output,
                  twist_average=twist_average,
                  exp_to_discard=exp_to_discard,
                  kpt=kpt,
                  kpt_grid=kpt_grid,
                  smearing_method=smearing_method,
                  smearing_sigma=smearing_sigma
                  )
                #INFO: ******************** input file end ********************


System: uname_result(system='Linux', node='spcc-205', release='5.4.0-66-generic', version='#74-Ubuntu SMP Wed Jan 27 22:54:38 UTC 2021', machine='x86_64', processor='x86_64')  Threads 128
Python 3.7.3 (default, Mar 27 2019, 22:11:17) 
[GCC 7.3.0]
numpy 1.20.1  scipy 1.7.3
Date: Thu Dec 22 05:32:59 2022
PySCF version 2.0.1
PySCF path  /home/nkousuke/application/anaconda3/lib/python3.7/site-packages/pyscf

[CONFIG] conf_file /home/nkousuke/.pyscf_conf.py
[INPUT] verbose = 5
[INPUT] max_memory = 507544.609375 
[INPUT] num. atoms = 2
[INPUT] num. electrons = 8
[INPUT] charge = 0
[INPUT] spin (= nelec alpha-beta = 2S) = 0
[INPUT] symmetry False subgroup None
[INPUT] Mole.unit = A
[INPUT]  1 F      0.000000000000   0.000000000000   0.091680000000 AA    0.000000000000   0.000000000000   0.173250091100 Bohr
[INPUT]  2 H      0.000000000000   0.000000000000  -0.825120000000 AA    0.000000000000   0.000000000000  -1.559250819901 Bohr
[INPUT] ---------------- BASIS SET ---------------- 
[INPUT] l, kappa, [nprim/nctr], expnt,             c_1 c_2 ...
[INPUT] H
[INPUT] 0    0    [8    /1   ]  23.843185         0.0041149
                                10.212443         0.0104644
                                4.374164          0.0280111
                                1.873529          0.0758862
                                0.802465          0.1821062
                                0.343709          0.3485214
                                0.147217          0.3782313
                                0.063055          0.1164241
[INPUT] 0    0    [1    /1   ]  0.081856             1
[INPUT] 0    0    [1    /1   ]  0.233254             1
[INPUT] 0    0    [1    /1   ]  0.664673             1
[INPUT] 1    0    [1    /1   ]  0.284469             1
[INPUT] 1    0    [1    /1   ]  0.847159             1
[INPUT] 1    0    [1    /1   ]  2.522868             1
[INPUT] 2    0    [1    /1   ]  0.665279             1
[INPUT] 2    0    [1    /1   ]  2.048739             1
[INPUT] 3    0    [1    /1   ]  1.42146              1
[INPUT] F
[INPUT] 0    0    [10   /1   ]  84.048652         -2.8e-06
                                41.094617         -0.0003543
                                20.092738         0.0184088
                                9.824112          -0.1277661
                                4.803386          -0.0702872
                                2.34856           0.1571604
                                1.148301          0.3769012
                                0.561449          0.4095165
                                0.274514          0.1970893
                                0.13422           0.0243482
[INPUT] 0    0    [1    /1   ]  1.705653             1
[INPUT] 0    0    [1    /1   ]  1.048013             1
[INPUT] 0    0    [1    /1   ]  0.294345             1
[INPUT] 1    0    [10   /1   ]  31.642619         0.0029673
                                16.243233         0.0298049
                                8.338204          0.0669489
                                4.280284          0.133779
                                2.197215          0.2148312
                                1.127906          0.2664862
                                0.578992          0.2618954
                                0.297216          0.1920217
                                0.152571          0.0828465
                                0.07832           0.0133046
[INPUT] 1    0    [1    /1   ]  1.650688             1
[INPUT] 1    0    [1    /1   ]  0.64724              1
[INPUT] 1    0    [1    /1   ]  0.205806             1
[INPUT] 2    0    [1    /1   ]  4.998085             1
[INPUT] 2    0    [1    /1   ]  1.724392             1
[INPUT] 2    0    [1    /1   ]  0.587354             1
[INPUT] 3    0    [1    /1   ]  3.694285             1
[INPUT] 3    0    [1    /1   ]  1.178147             1
[INPUT] 4    0    [1    /1   ]  2.406583             1

nuclear repulsion = 4.0404019158377
number of shells = 24
number of NR pGTOs = 127
number of NR cGTOs = 84
basis = ccecp-ccpvqz
ecp = ccecp
CPU time:         5.32


******** <class 'pyscf.df.df_jk.density_fit.<locals>.DFHF'> ********
method = DFHF-RKS-RHF
initial guess = minao
damping factor = 0
level_shift factor = 0
DIIS = <class 'pyscf.scf.diis.CDIIS'>
diis_start_cycle = 1
diis_space = 8
SCF conv_tol = 1e-09
SCF conv_tol_grad = None
SCF max_cycles = 200
direct_scf = True
direct_scf_tol = 1e-13
chkfile to save SCF result = pyscf.chk
max_memory 507544 MB (current use 106 MB)
XC library pyscf.dft.libxc version 5.1.7
    S. Lehtola, C. Steigemann, M. J. Oliveira, and M. A. Marques, SoftwareX 7, 1 (2018)
XC functionals = LDA_X,LDA_C_PZ
    P. A. M. Dirac, Math. Proc. Cambridge Philos. Soc. 26, 376 (1930)
    F. Bloch, Z. Phys. 57, 545 (1929)
    J. P. Perdew and A. Zunger, Phys. Rev. B 23, 5048 (1981)
radial grids: 
    Treutler-Ahlrichs [JCP 102, 346 (1995); DOI:10.1063/1.469408] (M4) radial grids
    
becke partition: Becke, JCP 88, 2547 (1988); DOI:10.1063/1.454033
pruning grids: <function nwchem_prune at 0x1541740947b8>
grids dens level: 3
symmetrized grids: False
atomic radii adjust function: <function treutler_atomic_radii_adjust at 0x1541740946a8>
small_rho_cutoff = 1e-07
Set gradient conv threshold to 3.16228e-05
atom F rad-grids = 75, ang-grids = [ 50  50  50  50  50  50  50  50  50  50  50  50  50  50  50  50  50  50
  50  50  50  86  86  86  86  86  86  86  86  86 266 266 266 266 266 266
 302 302 302 302 302 302 302 302 302 302 302 302 302 302 302 302 302 302
 266 266 266 266 266 266 266 266 266 266 266 266 266 266 266 266 266 266
 266 266 266]
atom H rad-grids = 50, ang-grids = [ 50  50  50  50  50  50  50  50  50  50  50  50  50  50  86  86  86  86
 266 266 266 266 302 302 302 302 302 302 302 302 302 302 302 302 302 266
 266 266 266 266 266 266 266 266 266 266 266 266 266 266]
tot grids = 24466
Drop grids 1743
    CPU time for setting up grids     18.39 sec, wall time      0.15 sec
nelec by numeric integration = 7.999921583661869
    CPU time for vxc     36.33 sec, wall time      0.28 sec
Even tempered Gaussians are generated as DF auxbasis for  H F
  ETB auxbasis for H  [[0, [32.28416, 1]], [0, [16.14208, 1]], [0, [8.07104, 1]], [0, [4.03552, 1]], [0, [2.01776, 1]], [0, [1.00888, 1]], [0, [0.50444, 1]], [0, [0.25222, 1]], [0, [0.12611, 1]], [1, [8.571507550502421, 1]], [1, [4.2857537752512105, 1]], [1, [2.1428768876256052, 1]], [1, [1.0714384438128026, 1]], [1, [0.5357192219064013, 1]], [1, [0.26785961095320066, 1]], [2, [4.551504, 1]], [2, [2.275752, 1]], [2, [1.137876, 1]], [2, [0.568938, 1]]]
  ETB auxbasis for F  [[0, [34.36032, 1]], [0, [17.18016, 1]], [0, [8.59008, 1]], [0, [4.29504, 1]], [0, [2.14752, 1]], [0, [1.07376, 1]], [0, [0.53688, 1]], [0, [0.26844, 1]], [1, [26.24731733290852, 1]], [1, [13.12365866645426, 1]], [1, [6.56182933322713, 1]], [1, [3.280914666613565, 1]], [1, [1.6404573333067825, 1]], [1, [0.8202286666533912, 1]], [1, [0.4101143333266956, 1]], [1, [0.2050571666633478, 1]], [2, [40.09984, 1]], [2, [20.04992, 1]], [2, [10.02496, 1]], [2, [5.01248, 1]], [2, [2.50624, 1]], [2, [1.25312, 1]], [2, [0.62656, 1]], [2, [0.31328, 1]], [2, [0.15664, 1]], [3, [13.72670431629093, 1]], [3, [6.863352158145465, 1]], [3, [3.4316760790727323, 1]], [3, [1.7158380395363662, 1]], [3, [0.8579190197681831, 1]], [3, [0.42895950988409154, 1]], [4, [9.397664, 1]], [4, [4.698832, 1]], [4, [2.349416, 1]], [4, [1.174708, 1]]]
num shells = 54, num cGTOs = 202
    CPU time for df-vj     28.64 sec, wall time      0.22 sec
E1 = -49.07293012148624  Ecoul = 25.155573096181126  Exc = -4.803123378250006
init E= -24.6800784877174
cond(S) = 14571.923174659714
    CPU time for initialize scf    160.49 sec, wall time      1.33 sec
  HOMO = -0.436956868966484  LUMO = -0.0114943110946413
  mo_energy =
[-1.17294145e+00 -5.54250601e-01 -4.36956869e-01 -4.36956869e-01
 -1.14943111e-02  2.55846869e-01  3.16510118e-01  3.95560859e-01
  3.95560859e-01  5.12809908e-01  5.12809908e-01  6.89257782e-01
  1.01562566e+00  1.21013721e+00  1.21510474e+00  1.21510478e+00
  1.50743737e+00  1.50743737e+00  1.69709880e+00  1.99557696e+00
  1.99557712e+00  2.11603735e+00  2.11603735e+00  2.32253372e+00
  2.33729004e+00  2.33729004e+00  2.88107592e+00  2.88107592e+00
  3.08592745e+00  3.25508480e+00  4.05392530e+00  4.05392530e+00
  4.30481311e+00  4.30481327e+00  4.69190988e+00  4.70382603e+00
  4.70382603e+00  4.78456607e+00  4.78456635e+00  4.95837924e+00
  5.38299686e+00  5.38299686e+00  5.82496605e+00  5.86591557e+00
  5.86591557e+00  6.81054205e+00  6.81054207e+00  7.24945795e+00
  7.30801982e+00  7.30801982e+00  7.39094342e+00  7.65333854e+00
  7.65334199e+00  7.83310276e+00  7.83310276e+00  9.04806206e+00
  9.04806206e+00  9.09682116e+00  9.55201015e+00  1.00543275e+01
  1.00543275e+01  1.13149734e+01  1.13149772e+01  1.14411675e+01
  1.14411675e+01  1.23214461e+01  1.23214502e+01  1.28959442e+01
  1.30914678e+01  1.32502185e+01  1.32502185e+01  1.47687226e+01
  1.47687226e+01  1.50489673e+01  1.50489673e+01  1.52776840e+01
  1.52776876e+01  1.55337136e+01  1.55337136e+01  1.63680548e+01
  1.67505558e+01  1.67505558e+01  1.84494309e+01  3.30301006e+01]
nelec by numeric integration = 7.999999970534549
    CPU time for vxc     35.29 sec, wall time      0.28 sec
    CPU time for df-vj      6.10 sec, wall time      0.05 sec
E1 = -50.46470524143566  Ecoul = 26.717392084116305  Exc = -5.048523673500065
cycle= 1 E= -24.7554349149817  delta_E= -0.0754  |g|= 0.46  |ddm|=  2.3
    CPU time for cycle= 1     86.48 sec, wall time      0.68 sec
  HOMO = -0.240991588791343  LUMO = 0.00261106526064732
  mo_energy =
[-9.98095214e-01 -3.94295042e-01 -2.40991589e-01 -2.40991589e-01
  2.61106526e-03  2.68985484e-01  3.89693957e-01  4.43091139e-01
  4.43091139e-01  5.48998922e-01  5.48998922e-01  7.18050828e-01
  1.01702392e+00  1.29811086e+00  1.29947574e+00  1.29947582e+00
  1.58569722e+00  1.58569722e+00  1.78737938e+00  1.99928854e+00
  1.99928866e+00  2.08840616e+00  2.08840616e+00  2.32671695e+00
  2.43814561e+00  2.43814561e+00  2.96177247e+00  2.96177247e+00
  3.11171327e+00  3.35835443e+00  4.18822227e+00  4.18822227e+00
  4.41377832e+00  4.41377877e+00  4.82688752e+00  4.85872191e+00
  4.85872191e+00  4.98981538e+00  4.98981563e+00  5.11894494e+00
  5.50807839e+00  5.50807839e+00  5.83736594e+00  5.83736594e+00
  5.86431868e+00  6.81866661e+00  6.81866671e+00  7.19398861e+00
  7.25439311e+00  7.25439311e+00  7.47026140e+00  7.59633890e+00
  7.59634174e+00  7.80769985e+00  7.80769985e+00  9.10559165e+00
  9.10559165e+00  9.15581651e+00  9.70492519e+00  1.02883740e+01
  1.02883740e+01  1.15193521e+01  1.15193557e+01  1.16322891e+01
  1.16322891e+01  1.24897933e+01  1.24897973e+01  1.30604601e+01
  1.32606487e+01  1.34275253e+01  1.34275253e+01  1.50364130e+01
  1.50364130e+01  1.53082820e+01  1.53082824e+01  1.55730909e+01
  1.55730939e+01  1.57941437e+01  1.57941437e+01  1.65911882e+01
  1.69872022e+01  1.69872022e+01  1.86645329e+01  3.33892615e+01]
nelec by numeric integration = 7.999999977146389
    CPU time for vxc     41.09 sec, wall time      0.32 sec
    CPU time for df-vj      8.05 sec, wall time      0.06 sec
E1 = -48.05702148696396  Ecoul = 23.90774001190235  Exc = -4.56653138186801
cycle= 2 E= -24.6754109410919  delta_E= 0.08  |g|= 0.879  |ddm|= 1.27
    CPU time for cycle= 2     98.78 sec, wall time      0.77 sec
  HOMO = -0.360734240666998  LUMO = -0.0144976990225544
  mo_energy =
[-1.11300371e+00 -4.99245399e-01 -3.60734241e-01 -3.60734241e-01
 -1.44976990e-02  2.48935101e-01  3.51305949e-01  4.10905238e-01
  4.10905238e-01  5.23114958e-01  5.23114958e-01  6.93361615e-01
  1.00202668e+00  1.24726228e+00  1.25420571e+00  1.25420579e+00
  1.53879257e+00  1.53879257e+00  1.73511890e+00  1.98769591e+00
  1.98769605e+00  2.08900752e+00  2.08900752e+00  2.30754417e+00
  2.37197601e+00  2.37197601e+00  2.90711242e+00  2.90711242e+00
  3.07723375e+00  3.29213935e+00  4.11577626e+00  4.11577626e+00
  4.34631264e+00  4.34631308e+00  4.74179918e+00  4.75572229e+00
  4.75572229e+00  4.86834227e+00  4.86834252e+00  5.01086001e+00
  5.43132750e+00  5.43132750e+00  5.82364502e+00  5.83540616e+00
  5.83540616e+00  6.79798411e+00  6.79798414e+00  7.19999440e+00
  7.25986987e+00  7.25986987e+00  7.39917931e+00  7.60283866e+00
  7.60284164e+00  7.79726701e+00  7.79726701e+00  9.05207092e+00
  9.05207092e+00  9.10174811e+00  9.59292365e+00  1.01284235e+01
  1.01284235e+01  1.14019171e+01  1.14019211e+01  1.15168214e+01
  1.15168214e+01  1.23805644e+01  1.23805683e+01  1.29435390e+01
  1.31419916e+01  1.33061227e+01  1.33061227e+01  1.48688831e+01
  1.48688831e+01  1.51413756e+01  1.51413759e+01  1.53795901e+01
  1.53795933e+01  1.56247504e+01  1.56247504e+01  1.64335518e+01
  1.68228255e+01  1.68228255e+01  1.85091144e+01  3.31421249e+01]
nelec by numeric integration = 7.999999972463646
    CPU time for vxc     46.43 sec, wall time      0.36 sec
    CPU time for df-vj      8.12 sec, wall time      0.06 sec
E1 = -49.74562884245557  Ecoul = 25.8106995936657  Exc = -4.8949075008546155
cycle= 3 E= -24.7894348338068  delta_E= -0.114  |g|= 0.0359  |ddm|= 0.845
    CPU time for cycle= 3     93.97 sec, wall time      0.74 sec
  HOMO = -0.354240205736979  LUMO = -0.0115228211858036
  mo_energy =
[-1.10402172e+00 -4.93390500e-01 -3.54240206e-01 -3.54240206e-01
 -1.15228212e-02  2.52517124e-01  3.51082563e-01  4.14043196e-01
  4.14043196e-01  5.24490004e-01  5.24490004e-01  6.96868005e-01
  1.00718404e+00  1.24872188e+00  1.25735352e+00  1.25735360e+00
  1.54224935e+00  1.54224935e+00  1.73650221e+00  1.99128730e+00
  1.99128744e+00  2.09356991e+00  2.09356991e+00  2.31159351e+00
  2.37605791e+00  2.37605791e+00  2.91153066e+00  2.91153066e+00
  3.08451035e+00  3.29619879e+00  4.11970352e+00  4.11970352e+00
  4.35216139e+00  4.35216188e+00  4.74539008e+00  4.76301065e+00
  4.76301065e+00  4.87308034e+00  4.87308061e+00  5.01774661e+00
  5.43453440e+00  5.43453440e+00  5.82956507e+00  5.84183126e+00
  5.84183126e+00  6.80404290e+00  6.80404291e+00  7.20591186e+00
  7.26607314e+00  7.26607314e+00  7.40942376e+00  7.61126183e+00
  7.61126477e+00  7.80668630e+00  7.80668630e+00  9.05960112e+00
  9.05960112e+00  9.10974533e+00  9.59972074e+00  1.01373188e+01
  1.01373188e+01  1.14075649e+01  1.14075688e+01  1.15230182e+01
  1.15230182e+01  1.23880511e+01  1.23880550e+01  1.29526998e+01
  1.31501494e+01  1.33150048e+01  1.33150048e+01  1.48769023e+01
  1.48769023e+01  1.51489860e+01  1.51489863e+01  1.53888017e+01
  1.53888049e+01  1.56316693e+01  1.56316693e+01  1.64430764e+01
  1.68322481e+01  1.68322481e+01  1.85191120e+01  3.31537934e+01]
nelec by numeric integration = 7.999999972658302
    CPU time for vxc     36.22 sec, wall time      0.29 sec
    CPU time for df-vj      8.62 sec, wall time      0.07 sec
E1 = -49.684725250749665  Ecoul = 25.736495412476575  Exc = -4.881794324270485
cycle= 4 E= -24.7896222467059  delta_E= -0.000187  |g|= 0.00413  |ddm|= 0.0391
    CPU time for cycle= 4     85.32 sec, wall time      0.67 sec
  HOMO = -0.354607337263408  LUMO = -0.0120853858916219
  mo_energy =
[-1.10456167e+00 -4.93332288e-01 -3.54607337e-01 -3.54607337e-01
 -1.20853859e-02  2.51996046e-01  3.51298878e-01  4.13532983e-01
  4.13532983e-01  5.24209477e-01  5.24209477e-01  6.96280272e-01
  1.00666365e+00  1.24867934e+00  1.25713460e+00  1.25713469e+00
  1.54217301e+00  1.54217301e+00  1.73667898e+00  1.99072429e+00
  1.99072443e+00  2.09283927e+00  2.09283927e+00  2.31088271e+00
  2.37571828e+00  2.37571828e+00  2.91111580e+00  2.91111580e+00
  3.08378909e+00  3.29608329e+00  4.11955723e+00  4.11955723e+00
  4.35187020e+00  4.35187071e+00  4.74560781e+00  4.76270405e+00
  4.76270405e+00  4.87296706e+00  4.87296730e+00  5.01745348e+00
  5.43471499e+00  5.43471499e+00  5.82919572e+00  5.84110942e+00
  5.84110942e+00  6.80342178e+00  6.80342181e+00  7.20498855e+00
  7.26515562e+00  7.26515562e+00  7.40863715e+00  7.61048252e+00
  7.61048544e+00  7.80602860e+00  7.80602860e+00  9.05904311e+00
  9.05904311e+00  9.10932061e+00  9.59946718e+00  1.01366631e+01
  1.01366631e+01  1.14073105e+01  1.14073144e+01  1.15228607e+01
  1.15228607e+01  1.23877611e+01  1.23877648e+01  1.29521535e+01
  1.31498883e+01  1.33145268e+01  1.33145268e+01  1.48764085e+01
  1.48764085e+01  1.51487258e+01  1.51487261e+01  1.53881710e+01
  1.53881741e+01  1.56316734e+01  1.56316734e+01  1.64425924e+01
  1.68317017e+01  1.68317017e+01  1.85186462e+01  3.31528975e+01]
nelec by numeric integration = 7.9999999726395306
    CPU time for vxc     35.37 sec, wall time      0.28 sec
    CPU time for df-vj      6.99 sec, wall time      0.05 sec
E1 = -49.686419212451945  Ecoul = 25.738596167951346  Exc = -4.882203429159574
cycle= 5 E= -24.7896245578225  delta_E= -2.31e-06  |g|= 0.000255  |ddm|= 0.00335
    CPU time for cycle= 5     73.72 sec, wall time      0.58 sec
  HOMO = -0.354692336591127  LUMO = -0.0121610717172984
  mo_energy =
[-1.10465726e+00 -4.93466914e-01 -3.54692337e-01 -3.54692337e-01
 -1.21610717e-02  2.51912282e-01  3.51230441e-01  4.13454136e-01
  4.13454136e-01  5.24139770e-01  5.24139770e-01  6.96205074e-01
  1.00656583e+00  1.24860502e+00  1.25707122e+00  1.25707131e+00
  1.54208992e+00  1.54208992e+00  1.73658670e+00  1.99063572e+00
  1.99063586e+00  2.09273535e+00  2.09273535e+00  2.31077372e+00
  2.37563009e+00  2.37563009e+00  2.91103595e+00  2.91103595e+00
  3.08367878e+00  3.29599082e+00  4.11949252e+00  4.11949252e+00
  4.35178967e+00  4.35179019e+00  4.74549677e+00  4.76259447e+00
  4.76259447e+00  4.87287656e+00  4.87287680e+00  5.01733570e+00
  5.43460528e+00  5.43460528e+00  5.82907849e+00  5.84101658e+00
  5.84101658e+00  6.80331890e+00  6.80331893e+00  7.20485897e+00
  7.26503157e+00  7.26503157e+00  7.40853839e+00  7.61037741e+00
  7.61038032e+00  7.80591621e+00  7.80591621e+00  9.05893376e+00
  9.05893376e+00  9.10919825e+00  9.59933405e+00  1.01365667e+01
  1.01365667e+01  1.14072349e+01  1.14072387e+01  1.15227658e+01
  1.15227658e+01  1.23876567e+01  1.23876604e+01  1.29520279e+01
  1.31497633e+01  1.33144158e+01  1.33144158e+01  1.48763196e+01
  1.48763196e+01  1.51486061e+01  1.51486065e+01  1.53880761e+01
  1.53880792e+01  1.56315271e+01  1.56315271e+01  1.64424600e+01
  1.68315808e+01  1.68315808e+01  1.85185030e+01  3.31527900e+01]
nelec by numeric integration = 7.999999972638984
    CPU time for vxc     36.41 sec, wall time      0.29 sec
    CPU time for df-vj      8.57 sec, wall time      0.07 sec
E1 = -49.68678309992971  Ecoul = 25.739041007270604  Exc = -4.882284389042233
cycle= 6 E= -24.7896245658636  delta_E= -8.04e-09  |g|= 5.59e-05  |ddm|= 0.000298
    CPU time for cycle= 6     82.92 sec, wall time      0.65 sec
  HOMO = -0.354685661412144  LUMO = -0.0121569593870217
  mo_energy =
[-1.10465006e+00 -4.93458845e-01 -3.54685661e-01 -3.54685661e-01
 -1.21569594e-02  2.51918055e-01  3.51229310e-01  4.13458641e-01
  4.13458641e-01  5.24140521e-01  5.24140521e-01  6.96208441e-01
  1.00657236e+00  1.24860604e+00  1.25707149e+00  1.25707158e+00
  1.54209109e+00  1.54209109e+00  1.73658667e+00  1.99064030e+00
  1.99064044e+00  2.09274259e+00  2.09274259e+00  2.31077982e+00
  2.37563462e+00  2.37563462e+00  2.91103935e+00  2.91103935e+00
  3.08368685e+00  3.29599369e+00  4.11949250e+00  4.11949250e+00
  4.35179147e+00  4.35179199e+00  4.74550074e+00  4.76260046e+00
  4.76260046e+00  4.87288123e+00  4.87288147e+00  5.01734276e+00
  5.43460690e+00  5.43460690e+00  5.82908538e+00  5.84102490e+00
  5.84102490e+00  6.80332537e+00  6.80332540e+00  7.20487000e+00
  7.26504243e+00  7.26504243e+00  7.40854727e+00  7.61038838e+00
  7.61039130e+00  7.80592550e+00  7.80592550e+00  9.05894286e+00
  9.05894286e+00  9.10920676e+00  9.59934553e+00  1.01365799e+01
  1.01365799e+01  1.14072379e+01  1.14072417e+01  1.15227692e+01
  1.15227692e+01  1.23876611e+01  1.23876648e+01  1.29520402e+01
  1.31497705e+01  1.33144225e+01  1.33144225e+01  1.48763298e+01
  1.48763298e+01  1.51486165e+01  1.51486168e+01  1.53880909e+01
  1.53880941e+01  1.56315385e+01  1.56315385e+01  1.64424712e+01
  1.68315939e+01  1.68315939e+01  1.85185171e+01  3.31528139e+01]
nelec by numeric integration = 7.999999972639335
    CPU time for vxc     30.57 sec, wall time      0.24 sec
    CPU time for df-vj      8.06 sec, wall time      0.06 sec
E1 = -49.68668502711592  Ecoul = 25.73892094162502  Exc = -4.882262396552269
cycle= 7 E= -24.7896245662055  delta_E= -3.42e-10  |g|= 1.41e-05  |ddm|= 8e-05
    CPU time for cycle= 7     56.61 sec, wall time      0.44 sec
  HOMO = -0.354691115110105  LUMO = -0.0121585018570503
  mo_energy =
[-1.10465565e+00 -4.93463762e-01 -3.54691115e-01 -3.54691115e-01
 -1.21585019e-02  2.51916155e-01  3.51228510e-01  4.13456491e-01
  4.13456491e-01  5.24139492e-01  5.24139492e-01  6.96206651e-01
  1.00657015e+00  1.24860422e+00  1.25706950e+00  1.25706959e+00
  1.54208900e+00  1.54208900e+00  1.73658498e+00  1.99063870e+00
  1.99063884e+00  2.09274078e+00  2.09274078e+00  2.31077768e+00
  2.37563136e+00  2.37563136e+00  2.91103659e+00  2.91103659e+00
  3.08368355e+00  3.29599082e+00  4.11948964e+00  4.11948964e+00
  4.35178833e+00  4.35178885e+00  4.74549733e+00  4.76259573e+00
  4.76259573e+00  4.87287636e+00  4.87287659e+00  5.01733786e+00
  5.43460405e+00  5.43460405e+00  5.82908237e+00  5.84102275e+00
  5.84102275e+00  6.80332286e+00  6.80332290e+00  7.20486767e+00
  7.26504009e+00  7.26504009e+00  7.40854259e+00  7.61038584e+00
  7.61038876e+00  7.80592243e+00  7.80592243e+00  9.05893894e+00
  9.05893894e+00  9.10920279e+00  9.59933998e+00  1.01365723e+01
  1.01365723e+01  1.14072331e+01  1.14072370e+01  1.15227645e+01
  1.15227645e+01  1.23876564e+01  1.23876601e+01  1.29520338e+01
  1.31497652e+01  1.33144170e+01  1.33144170e+01  1.48763224e+01
  1.48763224e+01  1.51486094e+01  1.51486097e+01  1.53880821e+01
  1.53880852e+01  1.56315314e+01  1.56315314e+01  1.64424643e+01
  1.68315864e+01  1.68315864e+01  1.85185097e+01  3.31528021e+01]
nelec by numeric integration = 7.999999972639138
    CPU time for vxc     40.52 sec, wall time      0.32 sec
    CPU time for df-vj      6.94 sec, wall time      0.06 sec
E1 = -49.6867475963655  Ecoul = 25.738996840333176  Exc = -4.882275725966256
Extra cycle  E= -24.7896245661609  delta_E= 4.46e-11  |g|= 2.26e-05  |ddm|= 3.57e-05
    CPU time for scf_cycle    840.67 sec, wall time      6.68 sec
    CPU time for SCF    840.69 sec, wall time      6.68 sec
converged SCF energy = -24.7896245661609
