#INFO: **** input file is /home/nkousuke/lustre/toBeSync/turboRVB/05turbo-genius-development/turbogenius_paper/04data/sanity_checks/03pyscf_HF_turbo_VMC_via_trexio/00open_boundary/results/Ca/pyscf-HF-workflow/run.py ****

from pyscf_wrapper import Pyscf_wrapper

# input variables
pyscf_chkfile="pyscf.chk"
structure_file="Ca.xyz"

# input variables
omp_num_threads=128
charge=0
spin=0
basis="ccecp-ccpvqz"
ecp="ccecp"
scf_method="HF"
dft_xc="NA"
solver_newton=False
MP2_flag=False
CCSD_flag=False
pyscf_output="out.pyscf"
twist_average=False
exp_to_discard=0.0
kpt=[0.0, 0.0, 0.0]
kpt_grid=[1, 1, 1]
smearing_method="fermi"
smearing_sigma=0.0

pyscf_calc=Pyscf_wrapper(
                        structure_file=structure_file,
                        chkfile=pyscf_chkfile,
                        )

pyscf_calc.run_pyscf(
                  omp_num_threads=omp_num_threads,
                  charge=charge,
                  spin=spin,
                  basis=basis,
                  ecp=ecp,
                  scf_method=scf_method,
                  dft_xc=dft_xc,
                  solver_newton=solver_newton,
                  MP2_flag=MP2_flag,
                  CCSD_flag=CCSD_flag,
                  pyscf_output=pyscf_output,
                  twist_average=twist_average,
                  exp_to_discard=exp_to_discard,
                  kpt=kpt,
                  kpt_grid=kpt_grid,
                  smearing_method=smearing_method,
                  smearing_sigma=smearing_sigma
                  )
                #INFO: ******************** input file end ********************


System: uname_result(system='Linux', node='spcc-200', release='5.4.0-66-generic', version='#74-Ubuntu SMP Wed Jan 27 22:54:38 UTC 2021', machine='x86_64', processor='x86_64')  Threads 128
Python 3.7.3 (default, Mar 27 2019, 22:11:17) 
[GCC 7.3.0]
numpy 1.20.1  scipy 1.7.3
Date: Mon Dec 19 18:06:08 2022
PySCF version 2.0.1
PySCF path  /home/nkousuke/application/anaconda3/lib/python3.7/site-packages/pyscf

[CONFIG] conf_file /home/nkousuke/.pyscf_conf.py
[INPUT] verbose = 5
[INPUT] max_memory = 507541.39453125 
[INPUT] num. atoms = 1
[INPUT] num. electrons = 10
[INPUT] charge = 0
[INPUT] spin (= nelec alpha-beta = 2S) = 0
[INPUT] symmetry False subgroup None
[INPUT] Mole.unit = A
[INPUT]  1 Ca     0.000000000000   0.000000000000   0.000000000000 AA    0.000000000000   0.000000000000   0.000000000000 Bohr
[INPUT] ---------------- BASIS SET ---------------- 
[INPUT] l, kappa, [nprim/nctr], expnt,             c_1 c_2 ...
[INPUT] Ca
[INPUT] 0    0    [13   /1   ]  38.909972         0.0009445
                                20.573489         -0.017709
                                10.878148         0.1434934
                                5.751777          -0.2803514
                                3.041228          -0.288477
                                1.608037          0.1724864
                                0.850243          0.5529008
                                0.449563          0.4676988
                                0.237704          0.0992915
                                0.125685          0.0066513
                                0.066456          -0.0019257
                                0.035138          0.0009612
                                0.018579          -0.0002439
[INPUT] 0    0    [13   /1   ]  38.909972         -0.0001831
                                20.573489         0.0042552
                                10.878148         -0.0372772
                                5.751777          0.0770474
                                3.041228          0.0782231
                                1.608037          -0.0517526
                                0.850243          -0.1746231
                                0.449563          -0.2532632
                                0.237704          -0.1606105
                                0.125685          0.1265476
                                0.066456          0.4648767
                                0.035138          0.4784006
                                0.018579          0.1564296
[INPUT] 0    0    [1    /1   ]  0.29984              1
[INPUT] 0    0    [1    /1   ]  0.0875               1
[INPUT] 0    0    [1    /1   ]  0.04203              1
[INPUT] 0    0    [1    /1   ]  0.019731             1
[INPUT] 1    0    [12   /1   ]  31.519451         -0.0001311
                                15.831494         0.0058111
                                7.951795          -0.04461
                                3.994003          -0.0423918
                                2.006096          0.1802885
                                1.007616          0.4074744
                                0.506102          0.3864672
                                0.254203          0.1545219
                                0.127681          0.0170677
                                0.064131          0.0031597
                                0.032211          -0.0002247
                                0.016179          0.0001683
[INPUT] 1    0    [12   /1   ]  31.519451         2.06e-05
                                15.831494         -0.0012455
                                7.951795          0.0101114
                                3.994003          0.0089427
                                2.006096          -0.0445868
                                1.007616          -0.0962752
                                0.506102          -0.1130073
                                0.254203          -0.0653332
                                0.127681          0.1468091
                                0.064131          0.441198
                                0.032211          0.4276318
                                0.016179          0.1251967
[INPUT] 1    0    [1    /1   ]  0.228266             1
[INPUT] 1    0    [1    /1   ]  0.092361             1
[INPUT] 1    0    [1    /1   ]  0.041625             1
[INPUT] 1    0    [1    /1   ]  0.018573             1
[INPUT] 2    0    [11   /1   ]  28.99793          0.0022783
                                13.712713         0.0119727
                                6.484549          0.0227323
                                3.066452          0.0699774
                                1.450082          0.125887
                                0.685723          0.1759711
                                0.324269          0.2096275
                                0.153342          0.2566155
                                0.072513          0.2887414
                                0.034291          0.2247794
                                0.016216          0.0829481
[INPUT] 2    0    [1    /1   ]  0.267718             1
[INPUT] 2    0    [1    /1   ]  0.091527             1
[INPUT] 2    0    [1    /1   ]  0.030733             1
[INPUT] 3    0    [1    /1   ]  0.5011               1
[INPUT] 3    0    [1    /1   ]  0.116                1
[INPUT] 4    0    [1    /1   ]  0.1431               1

nuclear repulsion = 0
number of shells = 19
number of NR pGTOs = 207
number of NR cGTOs = 67
basis = ccecp-ccpvqz
ecp = ccecp
CPU time:         6.87


******** <class 'pyscf.scf.hf.RHF'> ********
method = RHF
initial guess = minao
damping factor = 0
level_shift factor = 0
DIIS = <class 'pyscf.scf.diis.CDIIS'>
diis_start_cycle = 1
diis_space = 8
SCF conv_tol = 1e-09
SCF conv_tol_grad = None
SCF max_cycles = 200
direct_scf = True
direct_scf_tol = 1e-13
chkfile to save SCF result = pyscf.chk
max_memory 507541 MB (current use 106 MB)
Set gradient conv threshold to 3.16228e-05
E1 = -59.68929465811447  E_coul = 23.339560524505703
init E= -36.3497341336088
cond(S) = 350418.9543446935
    CPU time for initialize scf    132.56 sec, wall time      1.24 sec
  HOMO = -0.195784057925309  LUMO = 0.0172500632702179
  mo_energy =
[-2.28318723e+00 -1.34203851e+00 -1.34203851e+00 -1.34203851e+00
 -1.95784058e-01  1.72500633e-02  1.72500633e-02  1.72500633e-02
  5.75237235e-02  8.05265399e-02  8.05265399e-02  8.05265399e-02
  8.05265399e-02  8.05265399e-02  8.96587414e-02  8.96587414e-02
  8.96587414e-02  1.76200190e-01  1.76200190e-01  1.76200190e-01
  1.76200190e-01  1.76200190e-01  2.96979960e-01  3.15119103e-01
  3.15119103e-01  3.15119103e-01  4.31584290e-01  4.31584290e-01
  4.31584290e-01  4.31584290e-01  4.31584290e-01  4.31584290e-01
  4.31584290e-01  4.33996573e-01  4.33996573e-01  4.33996573e-01
  4.33996573e-01  4.33996573e-01  7.09904786e-01  7.09904786e-01
  7.09904786e-01  7.09904786e-01  7.09904786e-01  7.09904786e-01
  7.09904786e-01  7.09904786e-01  7.09904786e-01  1.01420192e+00
  1.01420192e+00  1.01420192e+00  1.39005699e+00  1.39005699e+00
  1.39005699e+00  1.39005699e+00  1.39005699e+00  1.39167024e+00
  1.67040539e+00  1.67040539e+00  1.67040539e+00  1.67040539e+00
  1.67040539e+00  1.67040539e+00  1.67040539e+00  5.38396163e+00
  5.38396163e+00  5.38396163e+00  3.23465130e+01]
E1 = -59.68930192233523  E_coul = 23.339567785844277
cycle= 1 E= -36.349734136491  delta_E= -2.88e-09  |g|= 9.23e-06  |ddm|= 0.00819
    CPU time for cycle= 1     38.95 sec, wall time      0.31 sec
  HOMO = -0.195783959495423  LUMO = 0.0172504161439142
  mo_energy =
[-2.28318636e+00 -1.34203762e+00 -1.34203762e+00 -1.34203762e+00
 -1.95783959e-01  1.72504161e-02  1.72504161e-02  1.72504161e-02
  5.75238564e-02  8.05268630e-02  8.05268630e-02  8.05268630e-02
  8.05268630e-02  8.05268630e-02  8.96586416e-02  8.96586416e-02
  8.96586416e-02  1.76200440e-01  1.76200440e-01  1.76200440e-01
  1.76200440e-01  1.76200440e-01  2.96980466e-01  3.15119365e-01
  3.15119365e-01  3.15119365e-01  4.31584530e-01  4.31584530e-01
  4.31584530e-01  4.31584530e-01  4.31584530e-01  4.31584530e-01
  4.31584530e-01  4.33997148e-01  4.33997148e-01  4.33997148e-01
  4.33997148e-01  4.33997148e-01  7.09905091e-01  7.09905091e-01
  7.09905091e-01  7.09905091e-01  7.09905091e-01  7.09905091e-01
  7.09905091e-01  7.09905091e-01  7.09905091e-01  1.01420234e+00
  1.01420234e+00  1.01420234e+00  1.39005793e+00  1.39005793e+00
  1.39005793e+00  1.39005793e+00  1.39005793e+00  1.39167090e+00
  1.67040532e+00  1.67040532e+00  1.67040532e+00  1.67040532e+00
  1.67040532e+00  1.67040532e+00  1.67040532e+00  5.38396247e+00
  5.38396247e+00  5.38396247e+00  3.23465180e+01]
E1 = -59.68930201079097  E_coul = 23.339567874256087
cycle= 2 E= -36.3497341365349  delta_E= -4.39e-11  |g|= 1.48e-06  |ddm|= 0.000494
    CPU time for cycle= 2     52.69 sec, wall time      0.41 sec
  HOMO = -0.195783870088352  LUMO = 0.0172505906076712
  mo_energy =
[-2.28318638e+00 -1.34203763e+00 -1.34203763e+00 -1.34203763e+00
 -1.95783870e-01  1.72505906e-02  1.72505906e-02  1.72505906e-02
  5.75239044e-02  8.05270052e-02  8.05270052e-02  8.05270052e-02
  8.05270052e-02  8.05270052e-02  8.96586565e-02  8.96586565e-02
  8.96586565e-02  1.76200517e-01  1.76200517e-01  1.76200517e-01
  1.76200517e-01  1.76200517e-01  2.96980679e-01  3.15119524e-01
  3.15119524e-01  3.15119524e-01  4.31584751e-01  4.31584751e-01
  4.31584751e-01  4.31584751e-01  4.31584751e-01  4.31584751e-01
  4.31584751e-01  4.33997253e-01  4.33997253e-01  4.33997253e-01
  4.33997253e-01  4.33997253e-01  7.09905334e-01  7.09905334e-01
  7.09905334e-01  7.09905334e-01  7.09905334e-01  7.09905334e-01
  7.09905334e-01  7.09905334e-01  7.09905334e-01  1.01420247e+00
  1.01420247e+00  1.01420247e+00  1.39005800e+00  1.39005800e+00
  1.39005800e+00  1.39005800e+00  1.39005800e+00  1.39167103e+00
  1.67040536e+00  1.67040536e+00  1.67040536e+00  1.67040536e+00
  1.67040536e+00  1.67040536e+00  1.67040536e+00  5.38396255e+00
  5.38396255e+00  5.38396255e+00  3.23465181e+01]
E1 = -59.68930344083836  E_coul = 23.339569304299744
Extra cycle  E= -36.3497341365386  delta_E= -3.74e-12  |g|= 4.54e-07  |ddm|= 5.14e-05
    CPU time for scf_cycle    257.98 sec, wall time      2.22 sec
    CPU time for SCF    257.98 sec, wall time      2.22 sec
converged SCF energy = -36.3497341365386
