#INFO: **** input file is /home/nkousuke/lustre/toBeSync/turboRVB/05turbo-genius-development/turbogenius_paper/04data/sanity_checks/03pyscf_HF_turbo_VMC_via_trexio/00open_boundary/results/Kr/pyscf-HF-workflow/run.py ****

from pyscf_wrapper import Pyscf_wrapper

# input variables
pyscf_chkfile="pyscf.chk"
structure_file="Kr.xyz"

# input variables
omp_num_threads=128
charge=0
spin=0
basis="ccecp-ccpvqz"
ecp="ccecp"
scf_method="HF"
dft_xc="NA"
solver_newton=False
MP2_flag=False
CCSD_flag=False
pyscf_output="out.pyscf"
twist_average=False
exp_to_discard=0.0
kpt=[0.0, 0.0, 0.0]
kpt_grid=[1, 1, 1]
smearing_method="fermi"
smearing_sigma=0.0

pyscf_calc=Pyscf_wrapper(
                        structure_file=structure_file,
                        chkfile=pyscf_chkfile,
                        )

pyscf_calc.run_pyscf(
                  omp_num_threads=omp_num_threads,
                  charge=charge,
                  spin=spin,
                  basis=basis,
                  ecp=ecp,
                  scf_method=scf_method,
                  dft_xc=dft_xc,
                  solver_newton=solver_newton,
                  MP2_flag=MP2_flag,
                  CCSD_flag=CCSD_flag,
                  pyscf_output=pyscf_output,
                  twist_average=twist_average,
                  exp_to_discard=exp_to_discard,
                  kpt=kpt,
                  kpt_grid=kpt_grid,
                  smearing_method=smearing_method,
                  smearing_sigma=smearing_sigma
                  )
                #INFO: ******************** input file end ********************


System: uname_result(system='Linux', node='spcc-200', release='5.4.0-66-generic', version='#74-Ubuntu SMP Wed Jan 27 22:54:38 UTC 2021', machine='x86_64', processor='x86_64')  Threads 128
Python 3.7.3 (default, Mar 27 2019, 22:11:17) 
[GCC 7.3.0]
numpy 1.20.1  scipy 1.7.3
Date: Mon Dec 19 18:07:19 2022
PySCF version 2.0.1
PySCF path  /home/nkousuke/application/anaconda3/lib/python3.7/site-packages/pyscf

[CONFIG] conf_file /home/nkousuke/.pyscf_conf.py
[INPUT] verbose = 5
[INPUT] max_memory = 507478.76171875 
[INPUT] num. atoms = 1
[INPUT] num. electrons = 8
[INPUT] charge = 0
[INPUT] spin (= nelec alpha-beta = 2S) = 0
[INPUT] symmetry False subgroup None
[INPUT] Mole.unit = A
[INPUT]  1 Kr     0.000000000000   0.000000000000   0.000000000000 AA    0.000000000000   0.000000000000   0.000000000000 Bohr
[INPUT] ---------------- BASIS SET ---------------- 
[INPUT] l, kappa, [nprim/nctr], expnt,             c_1 c_2 ...
[INPUT] Kr
[INPUT] 0    0    [9    /1   ]  59.995647         -0.000203
                                27.757709         0.001794
                                12.842438         -0.019252
                                5.941709          0.171194
                                2.749003          -0.477847
                                1.271859          -0.119686
                                0.588441          0.568434
                                0.272249          0.564028
                                0.125959          0.157608
[INPUT] 0    0    [1    /1   ]  0.812154             1
[INPUT] 0    0    [1    /1   ]  0.376882             1
[INPUT] 0    0    [1    /1   ]  0.174893             1
[INPUT] 1    0    [9    /1   ]  24.020781         0.000106
                                11.612963         -0.000892
                                5.614344          0.02038
                                2.714282          -0.15516
                                1.312233          0.057643
                                0.634405          0.355559
                                0.306706          0.426667
                                0.148279          0.271151
                                0.071686          0.06768
[INPUT] 1    0    [1    /1   ]  0.907972             1
[INPUT] 1    0    [1    /1   ]  0.346506             1
[INPUT] 1    0    [1    /1   ]  0.132236             1
[INPUT] 2    0    [1    /1   ]  0.795395             1
[INPUT] 2    0    [1    /1   ]  0.430905             1
[INPUT] 2    0    [1    /1   ]  0.233442             1
[INPUT] 3    0    [1    /1   ]  1.016655             1
[INPUT] 3    0    [1    /1   ]  0.438099             1
[INPUT] 4    0    [1    /1   ]  0.769765             1

nuclear repulsion = 0
number of shells = 14
number of NR pGTOs = 86
number of NR cGTOs = 54
basis = ccecp-ccpvqz
ecp = ccecp
CPU time:         9.02


******** <class 'pyscf.scf.hf.RHF'> ********
method = RHF
initial guess = minao
damping factor = 0
level_shift factor = 0
DIIS = <class 'pyscf.scf.diis.CDIIS'>
diis_start_cycle = 1
diis_space = 8
SCF conv_tol = 1e-09
SCF conv_tol_grad = None
SCF max_cycles = 200
direct_scf = True
direct_scf_tol = 1e-13
chkfile to save SCF result = pyscf.chk
max_memory 507478 MB (current use 106 MB)
Set gradient conv threshold to 3.16228e-05
E1 = -30.871364587856192  E_coul = 12.643304757302856
init E= -18.2280598305533
cond(S) = 719.1668364169525
    CPU time for initialize scf    104.91 sec, wall time      1.15 sec
  HOMO = -0.524995727805693  LUMO = 0.445682528629898
  mo_energy =
[-1.21739036 -0.52499573 -0.52499573 -0.52499573  0.44568253  0.44568253
  0.44568253  0.44568253  0.44568253  0.4770708   0.47811977  0.47811977
  0.47811977  1.34026971  1.34026971  1.34026971  1.34026971  1.34026971
  1.47687239  1.47687239  1.47687239  1.47687239  1.47687239  1.47687239
  1.47687239  2.3631773   2.3631773   2.3631773   2.69497953  3.43033362
  3.43033362  3.43033362  3.43033362  3.43033362  3.49753261  3.49753261
  3.49753261  3.49753261  3.49753261  3.49753261  3.49753261  3.49753261
  3.49753261  3.83029681  3.83029681  3.83029681  3.83029681  3.83029681
  3.83029681  3.83029681 15.27710104 15.27710104 15.27710104 31.62446386]
E1 = -30.871474694120785  E_coul = 12.64341485220592
cycle= 1 E= -18.2280598419149  delta_E= -1.14e-08  |g|= 2.38e-05  |ddm|= 0.00106
    CPU time for cycle= 1     24.03 sec, wall time      0.19 sec
  HOMO = -0.524982692842944  LUMO = 0.445686916717694
  mo_energy =
[-1.21737442 -0.52498269 -0.52498269 -0.52498269  0.44568692  0.44568692
  0.44568692  0.44568692  0.44568692  0.47707419  0.47812243  0.47812243
  0.47812243  1.34027969  1.34027969  1.34027969  1.34027969  1.34027969
  1.47687834  1.47687834  1.47687834  1.47687834  1.47687834  1.47687834
  1.47687834  2.36319391  2.36319391  2.36319391  2.69499825  3.43035488
  3.43035488  3.43035488  3.43035488  3.43035488  3.49754503  3.49754503
  3.49754503  3.49754503  3.49754503  3.49754503  3.49754503  3.49754503
  3.49754503  3.83032061  3.83032061  3.83032061  3.83032061  3.83032061
  3.83032061  3.83032061 15.27714682 15.27714682 15.27714682 31.62451445]
E1 = -30.871436870518217  E_coul = 12.643377028367205
cycle= 2 E= -18.228059842151  delta_E= -2.36e-10  |g|= 5.69e-06  |ddm|= 7.95e-05
    CPU time for cycle= 2     28.66 sec, wall time      0.22 sec
  HOMO = -0.524987156613253  LUMO = 0.445683917159836
  mo_energy =
[-1.21737994 -0.52498716 -0.52498716 -0.52498716  0.44568392  0.44568392
  0.44568392  0.44568392  0.44568392  0.47707118  0.47812069  0.47812069
  0.47812069  1.34027594  1.34027594  1.34027594  1.34027594  1.34027594
  1.47687439  1.47687439  1.47687439  1.47687439  1.47687439  1.47687439
  1.47687439  2.36318837  2.36318837  2.36318837  2.69499266  3.43034871
  3.43034871  3.43034871  3.43034871  3.43034871  3.49753936  3.49753936
  3.49753936  3.49753936  3.49753936  3.49753936  3.49753936  3.49753936
  3.49753936  3.83031372  3.83031372  3.83031372  3.83031372  3.83031372
  3.83031372  3.83031372 15.27713792 15.27713792 15.27713792 31.62450495]
E1 = -30.871439187581554  E_coul = 12.643379345424854
Extra cycle  E= -18.2280598421567  delta_E= -5.69e-12  |g|= 5.94e-07  |ddm|= 1.97e-05
    CPU time for scf_cycle    182.69 sec, wall time      1.76 sec
    CPU time for SCF    182.69 sec, wall time      1.76 sec
converged SCF energy = -18.2280598421567
