#INFO: **** input file is /home/nkousuke/lustre/toBeSync/turboRVB/05turbo-genius-development/turbogenius_paper/04data/sanity_checks/03pyscf_HF_turbo_VMC_via_trexio/00open_boundary/results/Cu/pyscf-HF-workflow/run.py ****

from pyscf_wrapper import Pyscf_wrapper

# input variables
pyscf_chkfile="pyscf.chk"
structure_file="Cu.xyz"

# input variables
omp_num_threads=128
charge=0
spin=1
basis="ccecp-ccpvtz"
ecp="ccecp"
scf_method="HF"
dft_xc="NA"
solver_newton=False
MP2_flag=False
CCSD_flag=False
pyscf_output="out.pyscf"
twist_average=False
exp_to_discard=0.0
kpt=[0.0, 0.0, 0.0]
kpt_grid=[1, 1, 1]
smearing_method="fermi"
smearing_sigma=0.0

pyscf_calc=Pyscf_wrapper(
                        structure_file=structure_file,
                        chkfile=pyscf_chkfile,
                        )

pyscf_calc.run_pyscf(
                  omp_num_threads=omp_num_threads,
                  charge=charge,
                  spin=spin,
                  basis=basis,
                  ecp=ecp,
                  scf_method=scf_method,
                  dft_xc=dft_xc,
                  solver_newton=solver_newton,
                  MP2_flag=MP2_flag,
                  CCSD_flag=CCSD_flag,
                  pyscf_output=pyscf_output,
                  twist_average=twist_average,
                  exp_to_discard=exp_to_discard,
                  kpt=kpt,
                  kpt_grid=kpt_grid,
                  smearing_method=smearing_method,
                  smearing_sigma=smearing_sigma
                  )
                #INFO: ******************** input file end ********************


System: uname_result(system='Linux', node='spcc-200', release='5.4.0-66-generic', version='#74-Ubuntu SMP Wed Jan 27 22:54:38 UTC 2021', machine='x86_64', processor='x86_64')  Threads 128
Python 3.7.3 (default, Mar 27 2019, 22:11:17) 
[GCC 7.3.0]
numpy 1.20.1  scipy 1.7.3
Date: Mon Dec 19 18:06:54 2022
PySCF version 2.0.1
PySCF path  /home/nkousuke/application/anaconda3/lib/python3.7/site-packages/pyscf

[CONFIG] conf_file /home/nkousuke/.pyscf_conf.py
[INPUT] verbose = 5
[INPUT] max_memory = 507501.98046875 
[INPUT] num. atoms = 1
[INPUT] num. electrons = 19
[INPUT] charge = 0
[INPUT] spin (= nelec alpha-beta = 2S) = 1
[INPUT] symmetry False subgroup None
[INPUT] Mole.unit = A
[INPUT]  1 Cu     0.000000000000   0.000000000000   0.000000000000 AA    0.000000000000   0.000000000000   0.000000000000 Bohr
[INPUT] ---------------- BASIS SET ---------------- 
[INPUT] l, kappa, [nprim/nctr], expnt,             c_1 c_2 ...
[INPUT] Cu
[INPUT] 0    0    [13   /1   ]  104.471138        0.000741
                                55.955221         -0.013953
                                30.553953         0.105266
                                16.942394         -0.129399
                                9.452707          -0.362738
                                5.174537          0.013266
                                2.779171          0.489288
                                1.441817          0.562088
                                0.710674          0.190047
                                0.24154           0.005635
                                0.129621          -0.000582
                                0.059229          -2.4e-05
                                0.02711           3e-05
[INPUT] 0    0    [13   /1   ]  104.471138        -0.000133
                                55.955221         0.002999
                                30.553953         -0.02431
                                16.942394         0.031986
                                9.452707          0.089149
                                5.174537          -0.01075
                                2.779171          -0.128224
                                1.441817          -0.21572
                                0.710674          -0.149559
                                0.24154           0.142917
                                0.129621          0.446307
                                0.059229          0.484643
                                0.02711           0.093069
[INPUT] 0    0    [13   /1   ]  104.471138        0.00021
                                55.955221         0.003806
                                30.553953         -0.047312
                                16.942394         0.059957
                                9.452707          0.250642
                                5.174537          -0.119102
                                2.779171          -0.314069
                                1.441817          -0.6893
                                0.710674          0.40305
                                0.24154           1.27044
                                0.129621          -0.029029
                                0.059229          -0.622157
                                0.02711           -0.442074
[INPUT] 0    0    [13   /1   ]  104.471138        0.000366
                                55.955221         0.00672
                                30.553953         -0.091493
                                16.942394         0.142263
                                9.452707          0.471881
                                5.174537          -0.319708
                                2.779171          -1.068255
                                1.441817          -0.615049
                                0.710674          2.261282
                                0.24154           -0.020059
                                0.129621          -1.815746
                                0.059229          0.474174
                                0.02711           0.713597
[INPUT] 0    0    [1    /1   ]  0.02711              1
[INPUT] 1    0    [13   /1   ]  159.15284         2.6e-05
                                83.322776         -0.000402
                                44.840311         0.007405
                                25.02036          -0.030714
                                13.610016         -0.074348
                                7.761318          0.04343
                                4.303947          0.289703
                                2.29008           0.413467
                                1.202173          0.303762
                                0.607647          0.093494
                                0.257656          0.006663
                                0.090897          0.000567
                                0.041925          0.000176
[INPUT] 1    0    [13   /1   ]  159.15284         3.4e-05
                                83.322776         -0.000129
                                44.840311         -0.000802
                                25.02036          0.004747
                                13.610016         0.018595
                                7.761318          -0.017692
                                4.303947          -0.052614
                                2.29008           -0.110349
                                1.202173          -0.054701
                                0.607647          -0.026655
                                0.257656          0.33588
                                0.090897          0.509478
                                0.041925          0.302559
[INPUT] 1    0    [13   /1   ]  159.15284         -0.000228
                                83.322776         0.001414
                                44.840311         -0.01029
                                25.02036          0.043896
                                13.610016         0.052865
                                7.761318          -0.056565
                                4.303947          -0.480715
                                2.29008           -0.315984
                                1.202173          0.075679
                                0.607647          1.060747
                                0.257656          -0.008061
                                0.090897          -0.701601
                                0.041925          0.006941
[INPUT] 1    0    [13   /1   ]  159.15284         -0.000412
                                83.322776         0.001957
                                44.840311         0.00064
                                25.02036          -0.036753
                                13.610016         -0.147193
                                7.761318          0.297782
                                4.303947          0.705271
                                2.29008           0.196466
                                1.202173          -1.659406
                                0.607647          0.3915
                                0.257656          1.243284
                                0.090897          -0.957529
                                0.041925          -0.056091
[INPUT] 1    0    [1    /1   ]  0.041925             1
[INPUT] 2    0    [11   /1   ]  226.693527        1.5e-05
                                73.010278         0.004108
                                38.536518         0.028223
                                18.7267           0.069323
                                9.155485          0.156045
                                4.540884          0.251238
                                2.241175          0.297463
                                1.085869          0.274981
                                0.510612          0.193098
                                0.229608          0.086393
                                0.095781          0.014645
[INPUT] 2    0    [11   /1   ]  226.693527        -1.3e-05
                                73.010278         -0.005252
                                38.536518         -0.034982
                                18.7267           -0.08895
                                9.155485          -0.207194
                                4.540884          -0.302597
                                2.241175          -0.179327
                                1.085869          0.169069
                                0.510612          0.405904
                                0.229608          0.341871
                                0.095781          0.11708
[INPUT] 2    0    [11   /1   ]  226.693527        1.6e-05
                                73.010278         0.006157
                                38.536518         0.040361
                                18.7267           0.106038
                                9.155485          0.263299
                                4.540884          0.288496
                                2.241175          -0.186745
                                1.085869          -0.591539
                                0.510612          -0.138681
                                0.229608          0.547749
                                0.095781          0.362353
[INPUT] 2    0    [1    /1   ]  0.095781             1
[INPUT] 3    0    [1    /1   ]  1.316717             1
[INPUT] 3    0    [1    /1   ]  5.230236             1
[INPUT] 4    0    [1    /1   ]  3.445758             1

nuclear repulsion = 0
number of shells = 17
number of NR pGTOs = 405
number of NR cGTOs = 63
basis = ccecp-ccpvtz
ecp = ccecp
CPU time:         6.05


******** <class 'pyscf.scf.rohf.ROHF'> ********
method = ROHF-RHF
initial guess = minao
damping factor = 0
level_shift factor = 0
DIIS = <class 'pyscf.scf.diis.CDIIS'>
diis_start_cycle = 1
diis_space = 8
SCF conv_tol = 1e-09
SCF conv_tol_grad = None
SCF max_cycles = 200
direct_scf = True
direct_scf_tol = 1e-13
chkfile to save SCF result = pyscf.chk
max_memory 507501 MB (current use 106 MB)
num. doubly occ = 9  num. singly occ = 1
Set gradient conv threshold to 3.16228e-05
E1 = -360.97154217156026  Ecoul = 165.85476468574285
init E= -195.116777485817
cond(S) = 106.86823797546296
    CPU time for initialize scf    224.63 sec, wall time      5.28 sec
  HOMO = -0.0768246862901506  LUMO = 0.0769972105403789
                  Roothaan           | alpha              | beta
  Highest 2-occ = -0.182486976563483 | -0.182486976563484 | -0.182486976563484
  Lowest 0-occ =  0.0769972105403789 | 0.0769972105403829 | 0.0769972105403829
  1-occ =         -0.0768246862901506 | -0.0768246862901532 | -0.0768246862901532
  Roothaan mo_energy =
[-4.81986841 -3.01067383 -3.01067383 -3.01067383 -0.18248698 -0.18248698
 -0.18248698 -0.18248698 -0.18248698 -0.07682469  0.07699721  0.07699721
  0.07699721  0.1901641   0.32061931  0.32061931  0.32061931  0.32061931
  0.32061931  0.32619045  0.32619045  0.32619045  0.86391699  1.45016776
  1.45016776  1.45016776  1.48533817  1.48533817  1.48533817  1.48533817
  1.48533817  4.0394025   4.30250798  4.30250798  4.30250798  4.30250798
  4.30250798  4.30250798  4.30250798  6.15792058  6.15792058  6.15792058
  6.15792058  6.15792058  6.45402463  6.45402463  6.45402463 14.86530569
 14.86530569 14.86530569 14.86530569 14.86530569 14.86530569 14.86530569
 14.86530569 14.86530569 15.35553313 15.35553313 15.35553313 15.35553313
 15.35553313 15.35553313 15.35553313]
E1 = -345.1074898829122  Ecoul = 150.10329672733445
cycle= 1 E= -195.004193155578  delta_E= 0.113  |g|= 2.14  |ddm|= 0.84
    CPU time for cycle= 1     26.61 sec, wall time      0.20 sec
  HOMO = -0.172266336624886  LUMO = 0.0488605810598614
                  Roothaan           | alpha              | beta
  Highest 2-occ = -0.983507159968904 | -0.985452856037044 | -0.981561463900763
  Lowest 0-occ =  0.0488605810598614 | 0.0285654308851107 | 0.0691557312346108
  1-occ =         -0.172266336624886 | -0.290964124825282 | -0.0306596052385051
  Roothaan mo_energy =
[-5.83841897 -3.97812461 -3.97812461 -3.97812461 -0.98350716 -0.98350716
 -0.98350716 -0.98350716 -0.98350716 -0.17226634  0.04886058  0.04886058
  0.04886058  0.15339815  0.24681927  0.24681927  0.24681927  0.27449274
  0.27449274  0.27449274  0.27449274  0.27449274  0.71275327  1.19174795
  1.19174795  1.19174795  1.19604582  1.19604582  1.19604582  1.19604582
  1.19604582  3.44411495  3.81210717  3.81210717  3.81210717  3.81210717
  3.81210717  3.81210717  3.81210717  5.25210662  5.25210662  5.25210662
  5.25210662  5.25210662  5.66540644  5.66540644  5.66540644 14.02595021
 14.02595021 14.02595021 14.02595021 14.02595021 14.02595021 14.02595021
 14.02595021 14.02595021 14.23523879 14.23523879 14.23523879 14.23523879
 14.23523879 14.23523879 14.23523879]
E1 = -365.2631981423974  Ecoul = 170.42663297454698
cycle= 2 E= -194.83656516785  delta_E= 0.168  |g|= 2.81  |ddm|= 0.901
    CPU time for cycle= 2     49.66 sec, wall time      0.39 sec
  HOMO = -0.117075665256894  LUMO = 0.0634280045144162
                  Roothaan           | alpha              | beta
  Highest 2-occ = -0.514708724423927 | 0.0445115122464959 | 0.0532136243607549
  Lowest 0-occ =  0.0634280045144162 | 0.0643691942898238 | 0.0934730055670682
  1-occ =         -0.117075665256894 |  -0.20204150712726 | 0.0871006719063482
  Roothaan mo_energy =
[-5.25450842 -3.42246302 -3.42246302 -3.42246302 -0.51470872 -0.51470872
 -0.51470872 -0.51470872 -0.51470872 -0.11707567  0.063428    0.063428
  0.063428    0.17000276  0.28678322  0.28678322  0.28678322  0.29608907
  0.29608907  0.29608907  0.29608907  0.29608907  0.78999677  1.32625303
  1.32625303  1.32625303  1.34466242  1.34466242  1.34466242  1.34466242
  1.34466242  3.7734066   4.07365924  4.07365924  4.07365924  4.07365924
  4.07365924  4.07365924  4.07365924  5.76591011  5.76591011  5.76591011
  5.76591011  5.76591011  6.11029544  6.11029544  6.11029544 14.49143942
 14.49143942 14.49143942 14.49143942 14.49143942 14.49143942 14.49143942
 14.49143942 14.49143942 14.87676816 14.87676816 14.87676816 14.87676816
 14.87676816 14.87676816 14.87676816]
E1 = -355.3689845798368  Ecoul = 160.0326509889698
cycle= 3 E= -195.336333590867  delta_E= -0.5  |g|= 0.0869  |ddm|= 0.445
    CPU time for cycle= 3     25.07 sec, wall time      0.19 sec
  HOMO = -0.104736574631624  LUMO = 0.0680103962165311
                  Roothaan           | alpha              | beta
  Highest 2-occ = -0.477492157677206 | -0.462694854007632 | -0.455430237455037
  Lowest 0-occ =  0.0680103962165311 | 0.0534046415299466 | 0.0837786793068885
  1-occ =         -0.104736574631624 | -0.243104347861156 | 0.0373552717455051
  Roothaan mo_energy =
[-5.20441153 -3.37434899 -3.37434899 -3.37434899 -0.47749216 -0.47749216
 -0.47749216 -0.47749216 -0.47749216 -0.10473657  0.0680104   0.0680104
  0.0680104   0.17327872  0.29752638  0.29752638  0.29752638  0.30240983
  0.30240983  0.30240983  0.30240983  0.30240983  0.80692065  1.35235227
  1.35235227  1.35235227  1.37118577  1.37118577  1.37118577  1.37118577
  1.37118577  3.80909051  4.1174538   4.1174538   4.1174538   4.1174538
  4.1174538   4.1174538   4.1174538   5.80664393  5.80664393  5.80664393
  5.80664393  5.80664393  6.15104895  6.15104895  6.15104895 14.54634812
 14.54634812 14.54634812 14.54634812 14.54634812 14.54634812 14.54634812
 14.54634812 14.54634812 14.92777769 14.92777769 14.92777769 14.92777769
 14.92777769 14.92777769 14.92777769]
E1 = -354.919436928971  Ecoul = 159.58239899342198
cycle= 4 E= -195.337037935549  delta_E= -0.000704  |g|= 0.00912  |ddm|= 0.0316
    CPU time for cycle= 4     15.37 sec, wall time      0.12 sec
  HOMO = -0.10489537727255  LUMO = 0.0680688052331497
                  Roothaan           | alpha              | beta
  Highest 2-occ = -0.479773583695861 | -0.485190290502673 |  -0.47809225380655
  Lowest 0-occ =  0.0680688052331497 | 0.0526788321275383 | 0.0833101466963249
  1-occ =          -0.10489537727255 | -0.244917908590226 | 0.0345179577441605
  Roothaan mo_energy =
[-5.20693507 -3.37675647 -3.37675647 -3.37675647 -0.47977358 -0.47977358
 -0.47977358 -0.47977358 -0.47977358 -0.10489538  0.06806881  0.06806881
  0.06806881  0.1734267   0.29754213  0.29754213  0.29754213  0.302475
  0.302475    0.302475    0.302475    0.302475    0.80690135  1.3518587
  1.3518587   1.3518587   1.37081562  1.37081562  1.37081562  1.37081562
  1.37081562  3.80779233  4.11599312  4.11599312  4.11599312  4.11599312
  4.11599312  4.11599312  4.11599312  5.8047184   5.8047184   5.8047184
  5.8047184   5.8047184   6.14926736  6.14926736  6.14926736 14.54369095
 14.54369095 14.54369095 14.54369095 14.54369095 14.54369095 14.54369095
 14.54369095 14.54369095 14.92489081 14.92489081 14.92489081 14.92489081
 14.92489081 14.92489081 14.92489081]
E1 = -354.96328160309724  Ecoul = 159.62623329606166
cycle= 5 E= -195.337048307036  delta_E= -1.04e-05  |g|= 0.00119  |ddm|= 0.0045
    CPU time for cycle= 5     40.94 sec, wall time      0.32 sec
  HOMO = -0.104932856904443  LUMO = 0.0680203098007982
                  Roothaan           | alpha              | beta
  Highest 2-occ = -0.479629260294477 | -0.483035260080023 | -0.475951007257711
  Lowest 0-occ =  0.0680203098007982 | 0.0527025602090783 | 0.0833597691947777
  1-occ =         -0.104932856904443 | -0.244588636909936 |  0.034680467227488
  Roothaan mo_energy =
[-5.20666574 -3.37652315 -3.37652315 -3.37652315 -0.47962926 -0.47962926
 -0.47962926 -0.47962926 -0.47962926 -0.10493286  0.06802031  0.06802031
  0.06802031  0.17350698  0.29751733  0.29751733  0.29751733  0.30239969
  0.30239969  0.30239969  0.30239969  0.30239969  0.80690893  1.3518505
  1.3518505   1.3518505   1.37078983  1.37078983  1.37078983  1.37078983
  1.37078983  3.80790788  4.11605564  4.11605564  4.11605564  4.11605564
  4.11605564  4.11605564  4.11605564  5.80489386  5.80489386  5.80489386
  5.80489386  5.80489386  6.14943096  6.14943096  6.14943096 14.54390395
 14.54390395 14.54390395 14.54390395 14.54390395 14.54390395 14.54390395
 14.54390395 14.54390395 14.92515734 14.92515734 14.92515734 14.92515734
 14.92515734 14.92515734 14.92515734]
E1 = -354.95989735002786  Ecoul = 159.62284873026857
cycle= 6 E= -195.337048619759  delta_E= -3.13e-07  |g|= 4.39e-05  |ddm|= 0.00153
    CPU time for cycle= 6     26.61 sec, wall time      0.21 sec
  HOMO = -0.104968466204719  LUMO = 0.0680060533852297
                  Roothaan           | alpha              | beta
  Highest 2-occ = -0.479687427025541 | -0.483215655698481 | -0.476140661262877
  Lowest 0-occ =  0.0680060533852297 | 0.0526685433467489 | 0.0833489386898828
  1-occ =         -0.104968466204719 | -0.244558629060456 | 0.0346276771345622
  Roothaan mo_energy =
[-5.20672033 -3.37658125 -3.37658125 -3.37658125 -0.47968743 -0.47968743
 -0.47968743 -0.47968743 -0.47968743 -0.10496847  0.06800605  0.06800605
  0.06800605  0.1735205   0.29749648  0.29749648  0.29749648  0.30238409
  0.30238409  0.30238409  0.30238409  0.30238409  0.80688814  1.35180849
  1.35180849  1.35180849  1.37074637  1.37074637  1.37074637  1.37074637
  1.37074637  3.80786216  4.11599183  4.11599183  4.11599183  4.11599183
  4.11599183  4.11599183  4.11599183  5.80484112  5.80484112  5.80484112
  5.80484112  5.80484112  6.14937955  6.14937955  6.14937955 14.54384178
 14.54384178 14.54384178 14.54384178 14.54384178 14.54384178 14.54384178
 14.54384178 14.54384178 14.92510082 14.92510082 14.92510082 14.92510082
 14.92510082 14.92510082 14.92510082]
E1 = -354.95973833300167  Ecoul = 159.62268971198404
cycle= 7 E= -195.337048621018  delta_E= -1.26e-09  |g|= 3.31e-06  |ddm|= 7.79e-05
    CPU time for cycle= 7     22.51 sec, wall time      0.18 sec
  HOMO = -0.104967690427704  LUMO = 0.0680063291567022
                  Roothaan           | alpha              | beta
  Highest 2-occ = -0.479687007617913 | -0.483224457309824 | -0.476150319573311
  Lowest 0-occ =  0.0680063291567022 | 0.0526653227615211 | 0.0833474519346743
  1-occ =         -0.104967690427704 |   -0.2445576359875 | 0.0346219725947025
  Roothaan mo_energy =
[-5.20671935 -3.37658055 -3.37658055 -3.37658055 -0.47968701 -0.47968701
 -0.47968701 -0.47968701 -0.47968701 -0.10496769  0.06800633  0.06800633
  0.06800633  0.17351971  0.29749649  0.29749649  0.29749649  0.30238413
  0.30238413  0.30238413  0.30238413  0.30238413  0.80688901  1.35180889
  1.35180889  1.35180889  1.37074656  1.37074656  1.37074656  1.37074656
  1.37074656  3.80786286  4.1159922   4.1159922   4.1159922   4.1159922
  4.1159922   4.1159922   4.1159922   5.80484166  5.80484166  5.80484166
  5.80484166  5.80484166  6.14938017  6.14938017  6.14938017 14.54384289
 14.54384289 14.54384289 14.54384289 14.54384289 14.54384289 14.54384289
 14.54384289 14.54384289 14.92510179 14.92510179 14.92510179 14.92510179
 14.92510179 14.92510179 14.92510179]
E1 = -354.9597526090722  Ecoul = 159.62270398804895
cycle= 8 E= -195.337048621023  delta_E= -5.63e-12  |g|= 9.46e-07  |ddm|= 6.24e-06
    CPU time for cycle= 8     31.74 sec, wall time      0.25 sec
  HOMO = -0.1049677695172  LUMO = 0.0680062862460207
                  Roothaan           | alpha              | beta
  Highest 2-occ = -0.479686778416236 | -0.483223822893309 | -0.476149733939157
  Lowest 0-occ =  0.0680062862460207 | 0.0526651704411967 | 0.0833474020508529
  1-occ =           -0.1049677695172 | -0.244557386314521 | 0.0346218587778306
  Roothaan mo_energy =
[-5.20671901 -3.37658024 -3.37658024 -3.37658024 -0.47968678 -0.47968678
 -0.47968678 -0.47968678 -0.47968678 -0.10496777  0.06800629  0.06800629
  0.06800629  0.17351979  0.29749647  0.29749647  0.29749647  0.3023841
  0.3023841   0.3023841   0.3023841   0.3023841   0.80688897  1.35180891
  1.35180891  1.35180891  1.37074657  1.37074657  1.37074657  1.37074657
  1.37074657  3.80786301  4.1159923   4.1159923   4.1159923   4.1159923
  4.1159923   4.1159923   4.1159923   5.80484192  5.80484192  5.80484192
  5.80484192  5.80484192  6.1493804   6.1493804   6.1493804  14.54384313
 14.54384313 14.54384313 14.54384313 14.54384313 14.54384313 14.54384313
 14.54384313 14.54384313 14.92510214 14.92510214 14.92510214 14.92510214
 14.92510214 14.92510214 14.92510214]
E1 = -354.95974293043423  Ecoul = 159.62269430941117
Extra cycle  E= -195.337048621023  delta_E= 1.99e-13  |g|= 1.39e-06  |ddm|= 6.15e-07
    CPU time for scf_cycle    486.66 sec, wall time      7.32 sec
    CPU time for SCF    486.66 sec, wall time      7.33 sec
converged SCF energy = -195.337048621023
