#INFO: **** input file is /home/nkousuke/lustre/toBeSync/turboRVB/05turbo-genius-development/turbogenius_paper/04data/sanity_checks/03pyscf_HF_turbo_VMC_via_trexio/00open_boundary/results/Ar/pyscf-HF-workflow/run.py ****

from pyscf_wrapper import Pyscf_wrapper

# input variables
pyscf_chkfile="pyscf.chk"
structure_file="Ar.xyz"

# input variables
omp_num_threads=128
charge=0
spin=0
basis="ccecp-ccpvqz"
ecp="ccecp"
scf_method="HF"
dft_xc="NA"
solver_newton=False
MP2_flag=False
CCSD_flag=False
pyscf_output="out.pyscf"
twist_average=False
exp_to_discard=0.0
kpt=[0.0, 0.0, 0.0]
kpt_grid=[1, 1, 1]
smearing_method="fermi"
smearing_sigma=0.0

pyscf_calc=Pyscf_wrapper(
                        structure_file=structure_file,
                        chkfile=pyscf_chkfile,
                        )

pyscf_calc.run_pyscf(
                  omp_num_threads=omp_num_threads,
                  charge=charge,
                  spin=spin,
                  basis=basis,
                  ecp=ecp,
                  scf_method=scf_method,
                  dft_xc=dft_xc,
                  solver_newton=solver_newton,
                  MP2_flag=MP2_flag,
                  CCSD_flag=CCSD_flag,
                  pyscf_output=pyscf_output,
                  twist_average=twist_average,
                  exp_to_discard=exp_to_discard,
                  kpt=kpt,
                  kpt_grid=kpt_grid,
                  smearing_method=smearing_method,
                  smearing_sigma=smearing_sigma
                  )
                #INFO: ******************** input file end ********************


System: uname_result(system='Linux', node='spcc-238', release='5.4.0-66-generic', version='#74-Ubuntu SMP Wed Jan 27 22:54:38 UTC 2021', machine='x86_64', processor='x86_64')  Threads 128
Python 3.7.3 (default, Mar 27 2019, 22:11:17) 
[GCC 7.3.0]
numpy 1.20.1  scipy 1.7.3
Date: Mon Dec 19 18:04:35 2022
PySCF version 2.0.1
PySCF path  /home/nkousuke/application/anaconda3/lib/python3.7/site-packages/pyscf

[CONFIG] conf_file /home/nkousuke/.pyscf_conf.py
[INPUT] verbose = 5
[INPUT] max_memory = 506303.63671875 
[INPUT] num. atoms = 1
[INPUT] num. electrons = 8
[INPUT] charge = 0
[INPUT] spin (= nelec alpha-beta = 2S) = 0
[INPUT] symmetry False subgroup None
[INPUT] Mole.unit = A
[INPUT]  1 Ar     0.000000000000   0.000000000000   0.000000000000 AA    0.000000000000   0.000000000000   0.000000000000 Bohr
[INPUT] ---------------- BASIS SET ---------------- 
[INPUT] l, kappa, [nprim/nctr], expnt,             c_1 c_2 ...
[INPUT] Ar
[INPUT] 0    0    [10   /1   ]  17.798602         0.000155
                                10.185798         0.002011
                                5.829136          0.072819
                                3.335903          -0.297567
                                1.909073          -0.143663
                                1.092526          0.157775
                                0.625231          0.391895
                                0.357808          0.424724
                                0.204767          0.22324
                                0.117184          0.063299
[INPUT] 0    0    [1    /1   ]  1.261554             1
[INPUT] 0    0    [1    /1   ]  0.507496             1
[INPUT] 0    0    [1    /1   ]  0.204155             1
[INPUT] 1    0    [10   /1   ]  7.61092           -0.008071
                                4.581784          -0.012332
                                2.75824           -0.061298
                                1.660464          0.101944
                                0.999601          0.172497
                                0.601761          0.288747
                                0.362261          0.247918
                                0.218082          0.231893
                                0.131285          0.095994
                                0.079034          0.046211
[INPUT] 1    0    [1    /1   ]  3.25684              1
[INPUT] 1    0    [1    /1   ]  1.339778             1
[INPUT] 1    0    [1    /1   ]  0.551149             1
[INPUT] 2    0    [1    /1   ]  2.467298             1
[INPUT] 2    0    [1    /1   ]  0.904123             1
[INPUT] 2    0    [1    /1   ]  0.331309             1
[INPUT] 3    0    [1    /1   ]  1.430464             1
[INPUT] 3    0    [1    /1   ]  0.561192             1
[INPUT] 4    0    [1    /1   ]  1.01801              1

nuclear repulsion = 0
number of shells = 14
number of NR pGTOs = 90
number of NR cGTOs = 54
basis = ccecp-ccpvqz
ecp = ccecp
CPU time:         6.03


******** <class 'pyscf.scf.hf.RHF'> ********
method = RHF
initial guess = minao
damping factor = 0
level_shift factor = 0
DIIS = <class 'pyscf.scf.diis.CDIIS'>
diis_start_cycle = 1
diis_space = 8
SCF conv_tol = 1e-09
SCF conv_tol_grad = None
SCF max_cycles = 200
direct_scf = True
direct_scf_tol = 1e-13
chkfile to save SCF result = pyscf.chk
max_memory 506303 MB (current use 106 MB)
Set gradient conv threshold to 3.16228e-05
E1 = -35.44815737276433  E_coul = 14.668494605776974
init E= -20.7796627669874
cond(S) = 917.8834970851238
    CPU time for initialize scf     88.94 sec, wall time      0.92 sec
  HOMO = -0.590245743945398  LUMO = 0.597922601933774
  mo_energy =
[-1.28484685 -0.59024574 -0.59024574 -0.59024574  0.5979226   0.5979226
  0.5979226   0.5979226   0.5979226   0.62749181  0.69787517  0.69787517
  0.69787517  1.921165    1.921165    1.921165    1.921165    1.921165
  1.9775668   1.9775668   1.9775668   1.9775668   1.9775668   1.9775668
  1.9775668   3.40277728  3.40277728  3.40277728  3.54840231  4.7483511
  4.7483511   4.7483511   4.7483511   4.7483511   4.7483511   4.7483511
  4.7483511   4.7483511   5.42705693  5.42705693  5.42705693  5.42705693
  5.42705693  5.42705693  5.42705693  5.87978344  5.87978344  5.87978344
  5.87978344  5.87978344 14.29365836 14.29365836 14.29365836 21.24737668]
E1 = -35.448150010865106  E_coul = 14.66848724372279
cycle= 1 E= -20.7796627671423  delta_E= -1.55e-10  |g|= 2.87e-06  |ddm|= 2.58e-05
    CPU time for cycle= 1     15.34 sec, wall time      0.12 sec
  HOMO = -0.590246602460894  LUMO = 0.597921913560275
  mo_energy =
[-1.28484795 -0.5902466  -0.5902466  -0.5902466   0.59792191  0.59792191
  0.59792191  0.59792191  0.59792191  0.62749134  0.69787479  0.69787479
  0.69787479  1.92116386  1.92116386  1.92116386  1.92116386  1.92116386
  1.97756624  1.97756624  1.97756624  1.97756624  1.97756624  1.97756624
  1.97756624  3.40277604  3.40277604  3.40277604  3.54840087  4.74835021
  4.74835021  4.74835021  4.74835021  4.74835021  4.74835021  4.74835021
  4.74835021  4.74835021  5.42705549  5.42705549  5.42705549  5.42705549
  5.42705549  5.42705549  5.42705549  5.87978156  5.87978156  5.87978156
  5.87978156  5.87978156 14.29365571 14.29365571 14.29365571 21.24737352]
E1 = -35.44815170991424  E_coul = 14.668488942771294
Extra cycle  E= -20.7796627671429  delta_E= -6.32e-13  |g|= 2.72e-07  |ddm|= 6.67e-06
    CPU time for scf_cycle    127.72 sec, wall time      1.23 sec
    CPU time for SCF    127.72 sec, wall time      1.23 sec
converged SCF energy = -20.7796627671429
