#INFO: **** input file is /home/nkousuke/lustre/toBeSync/turboRVB/05turbo-genius-development/turbogenius_paper/04data/sanity_checks/02pyscf_prep_LDA_via_trexio/00open_boundary/results/Si2H6/pyscf-LDA-workflow/run.py ****

from pyscf_wrapper import Pyscf_wrapper

# input variables
pyscf_chkfile="pyscf.chk"
structure_file="Si2H6.xyz"

# input variables
omp_num_threads=128
charge=0
spin=0
basis="ccecp-ccpvqz"
ecp="ccecp"
scf_method="DFT"
dft_xc="LDA_X,LDA_C_PZ"
solver_newton=False
MP2_flag=False
CCSD_flag=False
pyscf_output="out.pyscf"
twist_average=False
exp_to_discard=0.1
kpt=[0.0, 0.0, 0.0]
kpt_grid=[1, 1, 1]
smearing_method="fermi"
smearing_sigma=0.0

pyscf_calc=Pyscf_wrapper(
                        structure_file=structure_file,
                        chkfile=pyscf_chkfile,
                        )

pyscf_calc.run_pyscf(
                  omp_num_threads=omp_num_threads,
                  charge=charge,
                  spin=spin,
                  basis=basis,
                  ecp=ecp,
                  scf_method=scf_method,
                  dft_xc=dft_xc,
                  solver_newton=solver_newton,
                  MP2_flag=MP2_flag,
                  CCSD_flag=CCSD_flag,
                  pyscf_output=pyscf_output,
                  twist_average=twist_average,
                  exp_to_discard=exp_to_discard,
                  kpt=kpt,
                  kpt_grid=kpt_grid,
                  smearing_method=smearing_method,
                  smearing_sigma=smearing_sigma
                  )
                #INFO: ******************** input file end ********************


System: uname_result(system='Linux', node='spcc-109', release='5.4.0-66-generic', version='#74-Ubuntu SMP Wed Jan 27 22:54:38 UTC 2021', machine='x86_64', processor='x86_64')  Threads 128
Python 3.7.3 (default, Mar 27 2019, 22:11:17) 
[GCC 7.3.0]
numpy 1.20.1  scipy 1.7.3
Date: Thu Dec 22 06:19:53 2022
PySCF version 2.0.1
PySCF path  /home/nkousuke/application/anaconda3/lib/python3.7/site-packages/pyscf

[CONFIG] conf_file /home/nkousuke/.pyscf_conf.py
[INPUT] verbose = 5
[INPUT] max_memory = 507812.4140625 
[INPUT] num. atoms = 8
[INPUT] num. electrons = 14
[INPUT] charge = 0
[INPUT] spin (= nelec alpha-beta = 2S) = 0
[INPUT] symmetry False subgroup None
[INPUT] Mole.unit = A
[INPUT]  1 Si     0.000000000000   0.000000000000   1.170305000000 AA    0.000000000000   0.000000000000   2.211555932209 Bohr
[INPUT]  2 Si     0.000000000000   0.000000000000  -1.170305000000 AA    0.000000000000   0.000000000000  -2.211555932209 Bohr
[INPUT]  3 H      0.000000000000   1.388109000000   1.685486000000 AA    0.000000000000   2.623145841044   3.185106926789 Bohr
[INPUT]  4 H     -1.202138000000  -0.694055000000   1.685486000000 AA   -2.271711583932  -1.311573865385   3.185106926789 Bohr
[INPUT]  5 H      1.202138000000  -0.694055000000   1.685486000000 AA    2.271711583932  -1.311573865385   3.185106926789 Bohr
[INPUT]  6 H      0.000000000000  -1.388109000000  -1.685486000000 AA    0.000000000000  -2.623145841044  -3.185106926789 Bohr
[INPUT]  7 H     -1.202138000000   0.694055000000  -1.685486000000 AA   -2.271711583932   1.311573865385  -3.185106926789 Bohr
[INPUT]  8 H      1.202138000000   0.694055000000  -1.685486000000 AA    2.271711583932   1.311573865385  -3.185106926789 Bohr
[INPUT] ---------------- BASIS SET ---------------- 
[INPUT] l, kappa, [nprim/nctr], expnt,             c_1 c_2 ...
[INPUT] Si
[INPUT] 0    0    [10   /1   ]  9.998274          0.002894
                                5.517644          -0.014523
                                3.044965          0.077634
                                1.680393          -0.224022
                                0.927341          -0.14908
                                0.511762          0.085944
                                0.282421          0.355394
                                0.155857          0.445219
                                0.086011          0.26723
                                0.047466          0.060787
[INPUT] 0    0    [1    /1   ]  0.488504             1
[INPUT] 0    0    [1    /1   ]  0.199457             1
[INPUT] 0    0    [1    /1   ]  0.081439             1
[INPUT] 1    0    [10   /1   ]  5.027868          -0.003242
                                2.867751          0.010649
                                1.635683          -0.049761
                                0.932947          -1.7e-05
                                0.532126          0.10606
                                0.303509          0.236202
                                0.173113          0.310665
                                0.098739          0.294696
                                0.056318          0.153898
                                0.032122          0.042337
[INPUT] 1    0    [1    /1   ]  1.22579              1
[INPUT] 1    0    [1    /1   ]  0.501364             1
[INPUT] 1    0    [1    /1   ]  0.205064             1
[INPUT] 2    0    [1    /1   ]  0.997003             1
[INPUT] 2    0    [1    /1   ]  0.365942             1
[INPUT] 2    0    [1    /1   ]  0.134316             1
[INPUT] 3    0    [1    /1   ]  0.549116             1
[INPUT] 3    0    [1    /1   ]  0.214998             1
[INPUT] 4    0    [1    /1   ]  0.459547             1
[INPUT] H
[INPUT] 0    0    [8    /1   ]  23.843185         0.0041149
                                10.212443         0.0104644
                                4.374164          0.0280111
                                1.873529          0.0758862
                                0.802465          0.1821062
                                0.343709          0.3485214
                                0.147217          0.3782313
                                0.063055          0.1164241
[INPUT] 0    0    [1    /1   ]  0.081856             1
[INPUT] 0    0    [1    /1   ]  0.233254             1
[INPUT] 0    0    [1    /1   ]  0.664673             1
[INPUT] 1    0    [1    /1   ]  0.284469             1
[INPUT] 1    0    [1    /1   ]  0.847159             1
[INPUT] 1    0    [1    /1   ]  2.522868             1
[INPUT] 2    0    [1    /1   ]  0.665279             1
[INPUT] 2    0    [1    /1   ]  2.048739             1
[INPUT] 3    0    [1    /1   ]  1.42146              1

nuclear repulsion = 18.7497564530581
number of shells = 88
number of NR pGTOs = 402
number of NR cGTOs = 288
basis = ccecp-ccpvqz
ecp = ccecp
CPU time:         5.69


******** <class 'pyscf.df.df_jk.density_fit.<locals>.DFHF'> ********
method = DFHF-RKS-RHF
initial guess = minao
damping factor = 0
level_shift factor = 0
DIIS = <class 'pyscf.scf.diis.CDIIS'>
diis_start_cycle = 1
diis_space = 8
SCF conv_tol = 1e-09
SCF conv_tol_grad = None
SCF max_cycles = 200
direct_scf = True
direct_scf_tol = 1e-13
chkfile to save SCF result = pyscf.chk
max_memory 507812 MB (current use 106 MB)
XC library pyscf.dft.libxc version 5.1.7
    S. Lehtola, C. Steigemann, M. J. Oliveira, and M. A. Marques, SoftwareX 7, 1 (2018)
XC functionals = LDA_X,LDA_C_PZ
    P. A. M. Dirac, Math. Proc. Cambridge Philos. Soc. 26, 376 (1930)
    F. Bloch, Z. Phys. 57, 545 (1929)
    J. P. Perdew and A. Zunger, Phys. Rev. B 23, 5048 (1981)
radial grids: 
    Treutler-Ahlrichs [JCP 102, 346 (1995); DOI:10.1063/1.469408] (M4) radial grids
    
becke partition: Becke, JCP 88, 2547 (1988); DOI:10.1063/1.454033
pruning grids: <function nwchem_prune at 0x146d518257b8>
grids dens level: 3
symmetrized grids: False
atomic radii adjust function: <function treutler_atomic_radii_adjust at 0x146d518256a8>
small_rho_cutoff = 1e-07
Set gradient conv threshold to 3.16228e-05
atom Si rad-grids = 80, ang-grids = [ 50  50  50  50  50  50  50  50  50  50  50  50  50  50  50  50  50  50
  50  50  50  50  50  50  86  86  86  86  86  86  86  86  86  86  86  86
  86  86 350 350 350 350 350 350 350 350 350 434 434 434 434 434 434 434
 434 434 434 434 434 434 434 434 434 434 434 434 350 350 350 350 350 350
 350 350 350 350 350 350 350 350]
atom H rad-grids = 50, ang-grids = [ 50  50  50  50  50  50  50  50  50  50  50  50  50  50  86  86  86  86
 266 266 266 266 302 302 302 302 302 302 302 302 302 302 302 302 302 266
 266 266 266 266 266 266 266 266 266 266 266 266 266 266]
tot grids = 97544
Drop grids 8018
    CPU time for setting up grids     35.92 sec, wall time      0.31 sec
nelec by numeric integration = 13.999757778236747
    CPU time for vxc     60.00 sec, wall time      0.47 sec
Even tempered Gaussians are generated as DF auxbasis for  Si H
  ETB auxbasis for Si  [[0, [12.151296, 1]], [0, [6.075648, 1]], [0, [3.037824, 1]], [0, [1.518912, 1]], [0, [0.759456, 1]], [0, [0.379728, 1]], [0, [0.189864, 1]], [0, [0.094932, 1]], [1, [9.996145562599215, 1]], [1, [4.998072781299608, 1]], [1, [2.499036390649804, 1]], [1, [1.249518195324902, 1]], [1, [0.624759097662451, 1]], [1, [0.3123795488312255, 1]], [1, [0.15618977441561274, 1]], [1, [0.07809488720780637, 1]], [2, [8.223232, 1]], [2, [4.111616, 1]], [2, [2.055808, 1]], [2, [1.027904, 1]], [2, [0.513952, 1]], [2, [0.256976, 1]], [2, [0.128488, 1]], [2, [0.064244, 1]], [3, [4.203829928647447, 1]], [3, [2.1019149643237234, 1]], [3, [1.0509574821618617, 1]], [3, [0.5254787410809308, 1]], [3, [0.2627393705404654, 1]], [3, [0.1313696852702327, 1]], [4, [2.149056, 1]], [4, [1.074528, 1]], [4, [0.537264, 1]], [4, [0.268632, 1]]]
  ETB auxbasis for H  [[0, [32.28416, 1]], [0, [16.14208, 1]], [0, [8.07104, 1]], [0, [4.03552, 1]], [0, [2.01776, 1]], [0, [1.00888, 1]], [0, [0.50444, 1]], [0, [0.25222, 1]], [0, [0.12611, 1]], [1, [8.571507550502421, 1]], [1, [4.2857537752512105, 1]], [1, [2.1428768876256052, 1]], [1, [1.0714384438128026, 1]], [1, [0.5357192219064013, 1]], [1, [0.26785961095320066, 1]], [2, [4.551504, 1]], [2, [2.275752, 1]], [2, [1.137876, 1]], [2, [0.568938, 1]]]
num shells = 182, num cGTOs = 582
    CPU time for df-vj     63.32 sec, wall time      0.51 sec
E1 = -50.73018226787879  Ecoul = 25.463946304415252  Exc = -4.1133906609509
init E= -10.6298701713564
cond(S) = 36163.99963180559
    CPU time for initialize scf    538.89 sec, wall time      4.58 sec
  HOMO = -0.325289505351605  LUMO = -0.0680205900605789
  mo_energy =
[-5.81724564e-01 -5.21168285e-01 -3.80046010e-01 -3.80045796e-01
 -3.56609820e-01 -3.56609635e-01 -3.25289505e-01 -6.80205901e-02
 -6.80201072e-02 -5.72100916e-02 -4.13418995e-02 -1.86794148e-02
 -1.86790182e-02  5.48805929e-03  5.02935888e-02  6.82035679e-02
  6.82037231e-02  8.80175921e-02  8.80187324e-02  9.91316333e-02
  1.04582820e-01  1.04585456e-01  1.74813650e-01  2.19651030e-01
  2.19652034e-01  2.22017330e-01  2.22019462e-01  2.25193833e-01
  2.56041238e-01  2.57888380e-01  2.57892161e-01  2.77529417e-01
  3.14229120e-01  3.14230654e-01  3.25059111e-01  3.91720871e-01
  4.14050505e-01  4.31940090e-01  4.31940549e-01  4.42035711e-01
  5.22390165e-01  5.36043117e-01  5.36044697e-01  5.41777825e-01
  5.41778238e-01  5.68227835e-01  5.89899484e-01  5.89899642e-01
  6.09302374e-01  6.09303748e-01  6.56688212e-01  6.56689384e-01
  6.90438274e-01  7.28665602e-01  7.34010959e-01  7.44144606e-01
  7.44148993e-01  7.57230961e-01  7.66484170e-01  7.66485593e-01
  7.75269774e-01  8.09050407e-01  8.27127322e-01  8.27127422e-01
  8.58782501e-01  8.58782941e-01  8.64977259e-01  8.64981331e-01
  9.42132205e-01  9.42133968e-01  9.53928858e-01  9.71939959e-01
  9.77843046e-01  1.05245162e+00  1.05245274e+00  1.08776067e+00
  1.10920210e+00  1.10920339e+00  1.11077603e+00  1.11687143e+00
  1.11687277e+00  1.24238412e+00  1.24238415e+00  1.27864838e+00
  1.27865070e+00  1.28102158e+00  1.37837753e+00  1.42384568e+00
  1.42384830e+00  1.44223897e+00  1.44223905e+00  1.50194727e+00
  1.59259090e+00  1.59259100e+00  1.59915365e+00  1.66686553e+00
  1.72471774e+00  1.73330151e+00  1.73330204e+00  1.79645989e+00
  1.79646034e+00  1.83723637e+00  1.85519512e+00  1.85519555e+00
  1.88439031e+00  1.90379433e+00  1.96350326e+00  1.97206643e+00
  1.99028974e+00  1.99029017e+00  2.01831648e+00  2.01831666e+00
  2.06401545e+00  2.06751578e+00  2.06751730e+00  2.10803635e+00
  2.12530394e+00  2.14517967e+00  2.14949890e+00  2.14949946e+00
  2.16275106e+00  2.16275170e+00  2.18853023e+00  2.19043132e+00
  2.19175927e+00  2.19175996e+00  2.23641608e+00  2.23641852e+00
  2.29201400e+00  2.29201966e+00  2.29819643e+00  2.29826043e+00
  2.38702009e+00  2.39937254e+00  2.39937377e+00  2.41079453e+00
  2.46563926e+00  2.47913859e+00  2.47914222e+00  2.48866071e+00
  2.48866080e+00  2.50787084e+00  2.50787089e+00  2.53771610e+00
  2.54115049e+00  2.54115312e+00  2.56830434e+00  2.56830576e+00
  2.61511259e+00  2.65484275e+00  2.67046682e+00  2.67046819e+00
  2.72516429e+00  2.75212708e+00  2.75212999e+00  2.87607639e+00
  2.87607964e+00  2.96818263e+00  3.03866621e+00  3.03866755e+00
  3.07529179e+00  3.07529227e+00  3.09921638e+00  3.14167450e+00
  3.14167483e+00  3.22727619e+00  3.29674136e+00  3.29674333e+00
  3.30958113e+00  3.30958431e+00  3.35971373e+00  3.37456016e+00
  3.37456092e+00  3.42644285e+00  3.42672474e+00  3.42672563e+00
  3.43478326e+00  3.43478590e+00  3.48590817e+00  3.48591006e+00
  3.56276620e+00  3.57812684e+00  3.58264943e+00  3.77688117e+00
  5.05258616e+00  5.05258639e+00  5.09022922e+00  5.09023079e+00
  5.10308038e+00  5.28927832e+00  5.74374878e+00  5.74557135e+00
  5.77827204e+00  5.77828469e+00  5.77872468e+00  5.77872704e+00
  5.82041623e+00  5.82041802e+00  5.82411122e+00  5.82412645e+00
  5.88291849e+00  5.88544575e+00  5.97238081e+00  6.01331352e+00
  6.02107599e+00  6.04056786e+00  6.04056914e+00  6.04733200e+00
  6.05299017e+00  6.05299146e+00  6.07077352e+00  6.12435779e+00
  6.15327323e+00  6.15328801e+00  6.20145101e+00  6.20146474e+00
  6.27504705e+00  6.27505021e+00  6.28545296e+00  6.28545576e+00
  6.36214336e+00  6.36214362e+00  6.37050163e+00  6.40177079e+00
  6.42961828e+00  6.42961938e+00  6.52726439e+00  6.52727450e+00
  6.62236332e+00  6.62522237e+00  6.62522819e+00  6.62757015e+00
  6.62757289e+00  6.63704508e+00  6.63704661e+00  6.64911026e+00
  6.70689859e+00  6.72398304e+00  7.77270661e+00  7.82219448e+00
  7.82374771e+00  7.82377255e+00  7.84616419e+00  7.84620441e+00
  7.92938604e+00  7.92944147e+00  7.97383057e+00  7.99084275e+00
  8.00930789e+00  8.00934934e+00  8.07755896e+00  8.08200858e+00
  8.08203096e+00  8.08829638e+00  8.12406542e+00  8.16091515e+00
  8.16092945e+00  8.19382620e+00  8.19386254e+00  8.22114273e+00
  8.23011092e+00  8.23011685e+00  8.44127428e+00  8.44128780e+00
  8.44668987e+00  8.49726239e+00  8.51747277e+00  8.51908821e+00
  8.51911020e+00  8.54946250e+00  8.54946749e+00  8.55528227e+00
  8.55528718e+00  8.67680499e+00  8.69355040e+00  8.73729511e+00
  8.73731672e+00  8.75635732e+00  8.75638722e+00  8.78984247e+00
  8.84258889e+00  8.87141489e+00  9.34669660e+00  9.34669797e+00
  9.34962786e+00  9.34963240e+00  1.09520297e+01  1.09771747e+01]
nelec by numeric integration = 14.000000719522715
    CPU time for vxc     45.77 sec, wall time      0.37 sec
    CPU time for df-vj      7.86 sec, wall time      0.06 sec
E1 = -52.30415344712361  Ecoul = 26.74750602318799  Exc = -4.417684783641531
cycle= 1 E= -11.2245757545191  delta_E= -0.595  |g|= 0.179  |ddm|= 3.38
    CPU time for cycle= 1     69.59 sec, wall time      0.59 sec
  HOMO = -0.232391244230845  LUMO = -0.00100054909486797
  mo_energy =
[-4.86184472e-01 -4.30155405e-01 -2.99412845e-01 -2.99412625e-01
 -2.75630146e-01 -2.75629957e-01 -2.32391244e-01 -1.00054909e-03
 -1.00010522e-03 -2.55808258e-04  4.45885917e-03  3.51339559e-02
  3.51341058e-02  5.41884715e-02  9.36978728e-02  1.09342452e-01
  1.09342999e-01  1.39268947e-01  1.39270692e-01  1.40967580e-01
  1.40967948e-01  1.48104035e-01  2.32288080e-01  2.58697716e-01
  2.58698460e-01  2.61373392e-01  2.75273618e-01  2.75273783e-01
  2.97005488e-01  3.02394457e-01  3.02397707e-01  3.16813109e-01
  3.65472593e-01  3.65473194e-01  3.82130482e-01  4.49606816e-01
  4.62342558e-01  4.81469915e-01  4.81470228e-01  4.87087329e-01
  5.84652945e-01  5.88669096e-01  5.88669406e-01  6.03233818e-01
  6.03234495e-01  6.16948841e-01  6.49605213e-01  6.49605439e-01
  6.61933614e-01  6.61935186e-01  7.21636656e-01  7.21637372e-01
  7.44655130e-01  7.78639602e-01  7.94501478e-01  8.12211503e-01
  8.13986219e-01  8.13988681e-01  8.29909004e-01  8.29910191e-01
  8.31082319e-01  8.58498323e-01  8.81608529e-01  8.81609170e-01
  9.05109817e-01  9.05110380e-01  9.09859944e-01  9.09862739e-01
  9.96174975e-01  9.96175664e-01  1.00723756e+00  1.02667031e+00
  1.03557076e+00  1.10870678e+00  1.10870808e+00  1.15088107e+00
  1.17111029e+00  1.17111153e+00  1.18178839e+00  1.18360401e+00
  1.18360541e+00  1.31572481e+00  1.31572553e+00  1.33445658e+00
  1.33445742e+00  1.33823580e+00  1.46248808e+00  1.50107962e+00
  1.50108087e+00  1.51077698e+00  1.51077757e+00  1.58053175e+00
  1.67499748e+00  1.67499769e+00  1.68345076e+00  1.74422875e+00
  1.80828343e+00  1.80828393e+00  1.80952905e+00  1.87530478e+00
  1.87530504e+00  1.91831602e+00  1.93559696e+00  1.93559734e+00
  1.97483595e+00  1.98601880e+00  2.02294404e+00  2.05584146e+00
  2.06765217e+00  2.06765258e+00  2.09226038e+00  2.09226039e+00
  2.14414164e+00  2.15181636e+00  2.15181773e+00  2.18073947e+00
  2.20327857e+00  2.20827518e+00  2.23324693e+00  2.23324742e+00
  2.24412570e+00  2.24412681e+00  2.26605375e+00  2.26691396e+00
  2.27980472e+00  2.27980627e+00  2.30332151e+00  2.30332447e+00
  2.35140889e+00  2.35141481e+00  2.35174668e+00  2.35919677e+00
  2.46674653e+00  2.47453222e+00  2.47453358e+00  2.48830305e+00
  2.52134712e+00  2.54850884e+00  2.54851340e+00  2.55423326e+00
  2.55423366e+00  2.58289356e+00  2.58289398e+00  2.61499424e+00
  2.61499574e+00  2.61986549e+00  2.63880557e+00  2.63880612e+00
  2.70050995e+00  2.71451790e+00  2.74231949e+00  2.74232045e+00
  2.78952889e+00  2.81617170e+00  2.81617472e+00  2.94280500e+00
  2.94280780e+00  3.03909296e+00  3.11744536e+00  3.11744635e+00
  3.16497785e+00  3.16497844e+00  3.16987069e+00  3.21236825e+00
  3.21236838e+00  3.29692070e+00  3.37040159e+00  3.37040374e+00
  3.38184580e+00  3.38184829e+00  3.43550020e+00  3.45394387e+00
  3.45394432e+00  3.50651997e+00  3.51157503e+00  3.51157581e+00
  3.51335855e+00  3.51336110e+00  3.57155457e+00  3.57155580e+00
  3.65226669e+00  3.65661486e+00  3.67291893e+00  3.88546543e+00
  5.16159798e+00  5.16159837e+00  5.19922947e+00  5.19923076e+00
  5.22059458e+00  5.40413629e+00  5.81077752e+00  5.81254079e+00
  5.84604919e+00  5.84606351e+00  5.84727602e+00  5.84727835e+00
  5.88762774e+00  5.88762960e+00  5.89205547e+00  5.89207253e+00
  5.95064255e+00  5.95375703e+00  6.04550704e+00  6.09157427e+00
  6.09848412e+00  6.11805276e+00  6.11805424e+00  6.12181018e+00
  6.12889944e+00  6.12890085e+00  6.15827916e+00  6.21253200e+00
  6.23999256e+00  6.24000867e+00  6.29008695e+00  6.29010218e+00
  6.36379513e+00  6.36379778e+00  6.37604400e+00  6.37604676e+00
  6.44378535e+00  6.44378603e+00  6.46063131e+00  6.49129901e+00
  6.51448297e+00  6.51448433e+00  6.61792725e+00  6.61793860e+00
  6.71107566e+00  6.71548211e+00  6.71549035e+00  6.71771701e+00
  6.71771982e+00  6.72413898e+00  6.72413928e+00  6.74043980e+00
  6.79671744e+00  6.81303156e+00  7.85217259e+00  7.89976177e+00
  7.90188412e+00  7.90191131e+00  7.92381474e+00  7.92385889e+00
  8.00640647e+00  8.00646667e+00  8.05201612e+00  8.06837508e+00
  8.08555530e+00  8.08559987e+00  8.16134663e+00  8.16305062e+00
  8.16307430e+00  8.17355586e+00  8.19864408e+00  8.24413671e+00
  8.24414859e+00  8.27661017e+00  8.27665082e+00  8.29851533e+00
  8.30921176e+00  8.30921321e+00  8.52511702e+00  8.52513278e+00
  8.52695414e+00  8.58487453e+00  8.59820981e+00  8.60273026e+00
  8.60275276e+00  8.62794372e+00  8.62794982e+00  8.63574053e+00
  8.63574348e+00  8.75895264e+00  8.78032749e+00  8.81538077e+00
  8.81540332e+00  8.83414247e+00  8.83417417e+00  8.87132616e+00
  8.94826015e+00  8.97414339e+00  9.44821668e+00  9.44821855e+00
  9.45116508e+00  9.45116998e+00  1.10872998e+01  1.11123514e+01]
nelec by numeric integration = 14.000000406150402
    CPU time for vxc     47.93 sec, wall time      0.38 sec
    CPU time for df-vj      8.43 sec, wall time      0.07 sec
E1 = -51.6242721648477  Ecoul = 25.91457129329505  Exc = -4.270234243050663
cycle= 2 E= -11.2301786615453  delta_E= -0.0056  |g|= 0.139  |ddm|= 0.783
    CPU time for cycle= 2    144.79 sec, wall time      1.15 sec
  HOMO = -0.26982057062495  LUMO = -0.0267916438681553
  mo_energy =
[-0.52340629 -0.46147944 -0.32621802 -0.3262178  -0.3008548  -0.30085461
 -0.26982057 -0.02679164 -0.02679123 -0.02016317 -0.01172011  0.01544268
  0.01544285  0.03792737  0.07854825  0.09494442  0.09494474  0.12079298
  0.12079354  0.12686036  0.12686218  0.12937065  0.21307088  0.24430263
  0.24430366  0.24748592  0.25438523  0.25438532  0.28280391  0.28488361
  0.28488687  0.30383676  0.34729678  0.3472974   0.36078294  0.42774282
  0.44513055  0.46329267  0.46329301  0.47204928  0.56086056  0.57034966
  0.57035006  0.58037697  0.58037753  0.59874731  0.62565209  0.62565231
  0.64296941  0.64297094  0.6956278   0.6956285   0.72412612  0.75992341
  0.77023032  0.78613603  0.78613879  0.78899662  0.80568116  0.80568239
  0.81109472  0.84170718  0.86093785  0.86093815  0.88917617  0.88917667
  0.89391321  0.89391641  0.97658468  0.97658551  0.9885021   1.00718482
  1.01076969  1.08808804  1.08808935  1.12922465  1.14840766  1.14840888
  1.15330064  1.15870907  1.15871051  1.29041003  1.29041072  1.3165091
  1.31651003  1.31872151  1.42733329  1.46846026  1.46846168  1.48257038
  1.48257092  1.55120728  1.64258328  1.64258348  1.65346606  1.71786083
  1.77448478  1.77997532  1.77997584  1.84707436  1.84707454  1.8881728
  1.90409687  1.90409727  1.94080141  1.95263708  2.0028906   2.0249103
  2.03767526  2.03767568  2.06666978  2.06666988  2.11491802  2.11902982
  2.11903119  2.15119323  2.17802963  2.18432077  2.20158257  2.20158305
  2.21446799  2.21446903  2.2357059   2.23648974  2.2461858   2.24618705
  2.27963191  2.27963466  2.33194804  2.33195415  2.33483111  2.33866091
  2.43560335  2.44694181  2.446943    2.45813741  2.5036845   2.52374005
  2.52374455  2.53185464  2.53185519  2.55657522  2.55657527  2.58767198
  2.587674    2.5906199   2.61384209  2.61384286  2.66531392  2.6940415
  2.71588948  2.71589085  2.76749585  2.79417638  2.79417957  2.91875947
  2.91876249  3.01343655  3.08795452  3.0879556   3.12727298  3.1272736
  3.14600653  3.18637969  3.18637981  3.27300959  3.34454452  3.34454658
  3.35660525  3.35660778  3.40723699  3.42442767  3.42442797  3.47762431
  3.48111626  3.48111702  3.48442304  3.48442561  3.54074854  3.5407499
  3.62147564  3.62884876  3.64088659  3.84064816  5.12241215  5.12241253
  5.15943833  5.15943967  5.1746196   5.35949847  5.79208954  5.7938709
  5.82690257  5.82691666  5.82791928  5.82792153  5.86874853  5.8687507
  5.87277047  5.87278687  5.93147842  5.93442292  6.0238128   6.06899193
  6.07559541  6.09558739  6.09558888  6.09944715  6.10678293  6.10678436
  6.13156666  6.18631374  6.21370715  6.21372303  6.26267193  6.26268679
  6.33588107  6.335884    6.34729988  6.34730269  6.41953192  6.41953246
  6.43245413  6.4630068   6.48929925  6.48930067  6.58985648  6.58986753
  6.6858018   6.68823825  6.68824569  6.69192595  6.6919287   6.69893256
  6.69893278  6.71319546  6.77020707  6.78734354  7.83267274  7.88084057
  7.88267187  7.88269875  7.90498173  7.90502537  7.98772513  7.98778435
  8.03295614  8.04935829  8.06721688  8.06726077  8.14161012  8.14372505
  8.14374884  8.15317034  8.1811222   8.22411839  8.22413121  8.25689203
  8.25693227  8.27998608  8.29056342  8.29056617  8.50316254  8.5031778
  8.50638949  8.56159994  8.57736832  8.58118716  8.58121016  8.60803096
  8.60803664  8.61507363  8.61507739  8.73674825  8.75727198  8.79555008
  8.79557283  8.81428384  8.81431562  8.84984647  8.91714836  8.9444313
  9.42058354  9.42058552  9.42356824  9.42357329 11.03625662 11.06147299]
nelec by numeric integration = 14.000000554119609
    CPU time for vxc     48.07 sec, wall time      0.39 sec
    CPU time for df-vj      9.34 sec, wall time      0.07 sec
E1 = -51.958098788260536  Ecoul = 26.284841626223045  Exc = -4.315108347610925
cycle= 3 E= -11.2386090565904  delta_E= -0.00843  |g|= 0.0254  |ddm|= 0.324
    CPU time for cycle= 3     99.66 sec, wall time      0.80 sec
  HOMO = -0.268646278839169  LUMO = -0.0261852598568203
  mo_energy =
[-0.52304606 -0.46337233 -0.32769484 -0.32769462 -0.30312491 -0.30312472
 -0.26864628 -0.02618526 -0.02618483 -0.02060695 -0.01234539  0.01526779
  0.01526797  0.03629198  0.07764737  0.09458637  0.0945867   0.12011122
  0.12011179  0.12604557  0.12604743  0.1291361   0.21206194  0.2440746
  0.24407567  0.24716672  0.25415244  0.25415253  0.28158713  0.28485577
  0.28485902  0.30321158  0.34673501  0.34673568  0.36024563  0.42724952
  0.4444031   0.46292484  0.46292519  0.47078946  0.56094467  0.56937435
  0.56937479  0.579744    0.57974458  0.59831511  0.62578438  0.62578459
  0.64234219  0.64234373  0.69553718  0.6955379   0.72379683  0.76060131
  0.76974004  0.78623799  0.78624079  0.78990034  0.80551278  0.80551404
  0.81001448  0.84063335  0.86069438  0.8606947   0.88816655  0.88816706
  0.89301704  0.89302027  0.97576694  0.97576779  0.98734508  1.0073083
  1.01053434  1.08746374  1.08746504  1.12823107  1.14716904  1.14717028
  1.15341718  1.15748502  1.15748648  1.28901325  1.28901394  1.31483568
  1.31483662  1.31788189  1.42810705  1.46967888  1.46968034  1.48315564
  1.48315618  1.54961181  1.64301968  1.64301989  1.65188574  1.71587106
  1.77511817  1.7797644   1.77976493  1.84566671  1.84566688  1.88743324
  1.90439124  1.90439165  1.94037862  1.95326683  2.0015678   2.02408655
  2.03793336  2.03793378  2.0649907   2.06499083  2.11395656  2.11890171
  2.11890312  2.1520681   2.17712189  2.18305954  2.20127564  2.20127613
  2.21343062  2.21343167  2.2361908   2.23658298  2.24565395  2.24565522
  2.27892961  2.2789324   2.33022819  2.33023428  2.33330673  2.33727724
  2.43586201  2.44615191  2.44615313  2.45832577  2.50217286  2.52263905
  2.52264353  2.53056812  2.53056863  2.55555055  2.55555057  2.58641108
  2.58641307  2.59005121  2.61272998  2.61273077  2.66543292  2.69296751
  2.71493842  2.71493977  2.76634482  2.79297396  2.79297715  2.91801062
  2.91801364  3.01248119  3.08773905  3.08774015  3.12795871  3.12795934
  3.1442853   3.18568426  3.18568441  3.27151198  3.34296298  3.34296506
  3.35515921  3.35516177  3.40672663  3.42390764  3.42390796  3.47638322
  3.4799737   3.47997446  3.48370114  3.48370375  3.53973347  3.53973482
  3.61975947  3.6274256   3.63954524  3.84190097  5.12122841  5.12122878
  5.15847988  5.15848124  5.17448391  5.35922304  5.78931668  5.7911059
  5.82431549  5.82432944  5.82525071  5.82525301  5.86611625  5.86611851
  5.87023208  5.8702483   5.92891684  5.93177563  6.02141207  6.06611048
  6.07278547  6.09266992  6.09267142  6.09713989  6.10398259  6.10398405
  6.12890451  6.18338493  6.21076926  6.2107851   6.25987997  6.25989477
  6.33324494  6.33324783  6.34463096  6.34463376  6.41676807  6.4167686
  6.42989439  6.46046624  6.48661834  6.48661977  6.58731202  6.58732299
  6.68268466  6.68546034  6.68546781  6.68858144  6.68858412  6.69568896
  6.69568904  6.71014462  6.76710943  6.78438163  7.82890858  7.87713501
  7.87915923  7.87918608  7.90133542  7.90137901  7.98403172  7.98409062
  8.02944367  8.04574042  8.06349019  8.06353378  8.1375215   8.13988235
  8.13990618  8.14894092  8.17729915  8.2202956   8.22030831  8.25291247
  8.25295266  8.27609217  8.28650592  8.28650864  8.49970957  8.49972472
  8.50274396  8.5581547   8.57380588  8.57760216  8.57762503  8.60440237
  8.604408    8.61147516  8.61147893  8.73355627  8.75385375  8.79187748
  8.7919002   8.81072351  8.81075523  8.84644345  8.91398274  8.94111011
  9.41669438  9.41669636  9.41965984  9.41966489 11.03597724 11.06119693]
nelec by numeric integration = 14.000000553161398
    CPU time for vxc     45.81 sec, wall time      0.38 sec
    CPU time for df-vj     12.94 sec, wall time      0.11 sec
E1 = -51.937588057890665  Ecoul = 26.26865010078482  Exc = -4.319726026053707
cycle= 4 E= -11.2389075301015  delta_E= -0.000298  |g|= 0.00293  |ddm|= 0.0498
    CPU time for cycle= 4    125.71 sec, wall time      1.02 sec
  HOMO = -0.268923073599342  LUMO = -0.026471106285217
  mo_energy =
[-0.52326326 -0.46341223 -0.32793753 -0.32793731 -0.30334566 -0.30334547
 -0.26892307 -0.02647111 -0.02647068 -0.02063409 -0.01244508  0.01512464
  0.01512482  0.03628907  0.07759279  0.09443338  0.09443371  0.12004504
  0.12004561  0.12589874  0.1259006   0.12901257  0.21192264  0.2439105
  0.24391157  0.24708617  0.25402568  0.25402577  0.28148333  0.28470175
  0.284705    0.3030991   0.34662173  0.3466224   0.3601889   0.4272804
  0.44419738  0.46277396  0.46277431  0.47060579  0.56079582  0.56920296
  0.56920339  0.57958956  0.57959014  0.59813381  0.62562552  0.62562573
  0.64220482  0.64220636  0.69542297  0.6954237   0.72369399  0.76035434
  0.7696853   0.78613027  0.78613307  0.78973663  0.80544106  0.80544231
  0.81000702  0.84046343  0.86055708  0.8605574   0.88800959  0.8880101
  0.89286764  0.89287088  0.97566748  0.97566833  0.98722733  1.00708732
  1.01035337  1.0873034   1.0873047   1.12813165  1.14714712  1.14714836
  1.15311239  1.15738038  1.15738184  1.28879445  1.28879513  1.31468218
  1.31468313  1.31770961  1.42802926  1.46946935  1.4694708   1.48298815
  1.4829887   1.54991378  1.64275845  1.64275866  1.65177651  1.71580038
  1.7750406   1.779551    1.77955153  1.84561047  1.84561065  1.88732883
  1.90414017  1.90414058  1.94024517  1.9530364   2.00141065  2.02399833
  2.03766944  2.03766985  2.06496403  2.06496416  2.11386924  2.11878598
  2.11878738  2.15173796  2.17697792  2.18284554  2.20110798  2.20110846
  2.21333933  2.21334038  2.2358908   2.23645574  2.2455122   2.24551347
  2.2787049   2.2787077   2.33012638  2.33013247  2.33310575  2.33709163
  2.43555906  2.44599421  2.44599544  2.45814905  2.50193236  2.52253242
  2.5225369   2.53035876  2.53035927  2.55543929  2.55543933  2.58627011
  2.58627209  2.5899042   2.61250786  2.61250865  2.66515547  2.69274809
  2.7147761   2.71477745  2.76616069  2.79276487  2.79276807  2.91779446
  2.91779748  3.01237227  3.08762985  3.08763095  3.12779182  3.12779245
  3.14413476  3.18548567  3.18548581  3.27135178  3.34280664  3.34280872
  3.35496862  3.35497117  3.40654325  3.42368845  3.42368878  3.47622872
  3.47983609  3.47983685  3.48355259  3.4835552   3.53956824  3.5395696
  3.61963136  3.62727454  3.63942975  3.84167498  5.12105481  5.12105518
  5.15831394  5.15831529  5.17442504  5.35918862  5.78908834  5.79087622
  5.82404667  5.8240606   5.8249969   5.8249992   5.86586142  5.86586371
  5.86995943  5.86997559  5.92865212  5.93152829  6.02112192  6.06585004
  6.07257258  6.09243711  6.09243861  6.09683815  6.10374838  6.10374984
  6.12862497  6.1831017   6.21055823  6.21057404  6.25966593  6.25968071
  6.33301955  6.33302245  6.34441302  6.34441582  6.41650443  6.41650495
  6.4296382   6.46026034  6.4862896   6.48629104  6.5870189   6.58702986
  6.68231112  6.68519815  6.68520557  6.68829111  6.68829379  6.69541584
  6.69541597  6.70986826  6.76683455  6.78400112  7.82853982  7.87675584
  7.87872856  7.87875538  7.90092326  7.90096682  7.98365057  7.98370942
  8.02898582  8.04535066  8.06311319  8.06315674  8.13706696  8.13940486
  8.1394287   8.14855538  8.17686659  8.21980574  8.21981844  8.25246081
  8.25250099  8.27568249  8.28610111  8.28610384  8.4992914   8.49930653
  8.50237164  8.55772817  8.57343132  8.57719811  8.57722097  8.60402855
  8.60403417  8.61109346  8.61109722  8.73313687  8.75342972  8.791499
  8.79152171  8.81032372  8.81035543  8.84602115  8.9136073   8.94073841
  9.41629465  9.41629661  9.41926058  9.41926561 11.03599013 11.06118192]
nelec by numeric integration = 14.000000556063984
    CPU time for vxc     48.58 sec, wall time      0.40 sec
    CPU time for df-vj     11.31 sec, wall time      0.09 sec
E1 = -51.93797606680911  Ecoul = 26.269465445144938  Exc = -4.320157397962246
cycle= 5 E= -11.2389115665684  delta_E= -4.04e-06  |g|= 0.000189  |ddm|= 0.00558
    CPU time for cycle= 5    113.30 sec, wall time      0.92 sec
  HOMO = -0.268886866097779  LUMO = -0.0264315914030856
  mo_energy =
[-0.52321589 -0.4633692  -0.32789348 -0.32789325 -0.30330422 -0.30330403
 -0.26888687 -0.02643159 -0.02643117 -0.0206158  -0.01242786  0.01515747
  0.01515764  0.03630048  0.07760005  0.09444912  0.09444945  0.1200692
  0.12006976  0.12590195  0.12590381  0.12903132  0.2119528   0.24392282
  0.24392389  0.24709836  0.25405009  0.25405018  0.28149365  0.28472785
  0.28473111  0.30312604  0.34665247  0.34665314  0.36021492  0.42730029
  0.44422531  0.46279785  0.4627982   0.47062569  0.56082414  0.56922584
  0.56922627  0.57960969  0.57961027  0.59815565  0.62565167  0.62565187
  0.64222819  0.64222973  0.69545596  0.69545668  0.72371824  0.76038317
  0.76970663  0.78616175  0.78616455  0.78977463  0.80547741  0.80547866
  0.81002561  0.84048481  0.86058359  0.86058391  0.88803212  0.88803263
  0.89288657  0.89288981  0.97568966  0.97569051  0.98724451  1.00711636
  1.01038113  1.08732817  1.08732947  1.12816374  1.14716929  1.14717053
  1.15313923  1.15740153  1.15740298  1.28882859  1.28882926  1.31470831
  1.31470925  1.31774364  1.42806663  1.46951319  1.46951464  1.48302781
  1.48302835  1.54994057  1.64279825  1.64279846  1.65181841  1.7158374
  1.77507468  1.7795931   1.77959363  1.84564725  1.84564743  1.88737073
  1.90418328  1.90418369  1.94028042  1.95308139  2.00144391  2.02404181
  2.0377107   2.03771111  2.06499833  2.06499846  2.11390623  2.11882755
  2.11882896  2.15178272  2.17701706  2.1828811   2.20114968  2.20115017
  2.21337775  2.2133788   2.23593554  2.23649468  2.24555287  2.24555414
  2.27874226  2.27874506  2.33015428  2.33016037  2.33313701  2.33712745
  2.43559925  2.44602998  2.44603121  2.45819212  2.50196254  2.52256463
  2.52256911  2.53039329  2.5303938   2.5554772   2.55547724  2.58630351
  2.5863055   2.58994139  2.61254134  2.61254213  2.66518662  2.69277973
  2.71481075  2.71481211  2.76619331  2.79280024  2.79280344  2.91783045
  2.91783348  3.01240525  3.08766878  3.08766988  3.12783312  3.12783374
  3.14416292  3.18552317  3.18552331  3.27138409  3.3428393   3.34284138
  3.35499992  3.35500247  3.40657738  3.42372537  3.4237257   3.47626892
  3.47987633  3.47987709  3.48359354  3.48359615  3.53960974  3.5396111
  3.61967274  3.62731437  3.63947166  3.84171402  5.12110482  5.12110517
  5.15836428  5.15836562  5.17447091  5.35923524  5.78913012  5.79091808
  5.82408967  5.8241036   5.8250394   5.8250417   5.8659041   5.8659064
  5.87000317  5.87001933  5.92869527  5.93157041  6.02116496  6.06589295
  6.0726141   6.09247901  6.09248052  6.09688257  6.10379074  6.1037922
  6.1286695   6.18314671  6.21060101  6.21061682  6.25970958  6.25972436
  6.33306325  6.33306614  6.34445617  6.34445897  6.41654891  6.41654943
  6.42968399  6.46030461  6.4863369   6.48633835  6.58706576  6.58707673
  6.68235582  6.68524305  6.68525047  6.6883351   6.68833779  6.69545996
  6.69546009  6.70991429  6.76688024  6.78404592  7.82858874  7.87680453
  7.87878015  7.87880698  7.90097328  7.90101685  7.98369843  7.98375727
  8.02903923  8.04540025  8.06316007  8.06320361  8.13711604  8.13945546
  8.13947931  8.14860142  8.17691231  8.21985792  8.21987062  8.25250944
  8.25254962  8.27572777  8.28614589  8.28614864  8.49933991  8.49935507
  8.50241366  8.55777904  8.5734752   8.57724582  8.57726869  8.6040723
  8.60407791  8.61113863  8.61114238  8.73318427  8.75348045  8.79154132
  8.79156403  8.81036701  8.81039873  8.84606655  8.91365698  8.9407874
  9.41634425  9.41634623  9.41930999  9.41931504 11.03604341 11.0612357 ]
nelec by numeric integration = 14.000000556201531
    CPU time for vxc     45.37 sec, wall time      0.36 sec
    CPU time for df-vj      7.93 sec, wall time      0.06 sec
E1 = -51.93756187111364  Ecoul = 26.268975627524537  Exc = -4.320081795080535
cycle= 6 E= -11.2389115856116  delta_E= -1.9e-08  |g|= 2.33e-05  |ddm|= 0.000511
    CPU time for cycle= 6    107.58 sec, wall time      0.85 sec
  HOMO = -0.268886824643831  LUMO = -0.0264342112698063
  mo_energy =
[-0.52321887 -0.46337434 -0.32789826 -0.32789804 -0.30330938 -0.30330919
 -0.26888682 -0.02643421 -0.02643379 -0.02061815 -0.01243172  0.01515364
  0.01515382  0.03629589  0.07759802  0.09444575  0.09444608  0.12006503
  0.12006559  0.12589761  0.12589947  0.12902983  0.21194975  0.24391938
  0.24392045  0.24709551  0.25404686  0.25404695  0.28148979  0.2847245
  0.28472775  0.30312332  0.34664937  0.34665004  0.36021171  0.42729869
  0.44422075  0.46279505  0.4627954   0.47062098  0.56082253  0.56922169
  0.56922212  0.57960616  0.57960675  0.59815193  0.62564831  0.62564852
  0.64222484  0.64222638  0.69545181  0.69545254  0.72371543  0.76037956
  0.76970392  0.78615825  0.78616104  0.78977244  0.80547402  0.80547527
  0.81002188  0.84048081  0.86058031  0.86058063  0.88802798  0.88802849
  0.89288281  0.89288605  0.97568604  0.97568688  0.98724012  1.00711182
  1.01037712  1.08732451  1.08732581  1.12816016  1.14716472  1.14716596
  1.15313702  1.15739618  1.15739763  1.28882424  1.28882491  1.31470419
  1.31470513  1.31774019  1.42806481  1.46951059  1.46951204  1.48302441
  1.48302496  1.54993674  1.64279589  1.6427961   1.65181246  1.71583188
  1.7750728   1.77958926  1.77958979  1.84564286  1.84564303  1.88736627
  1.90418005  1.90418047  1.94027791  1.95307822  2.00143963  2.0240373
  2.03770776  2.03770817  2.06499393  2.06499406  2.11390232  2.11882408
  2.11882549  2.15177957  2.17701337  2.18287673  2.20114594  2.20114642
  2.2133734   2.21337445  2.23593189  2.23649193  2.24554922  2.24555049
  2.27873891  2.27874171  2.33015057  2.33015666  2.33313311  2.33712341
  2.43559668  2.4460266   2.44602783  2.4581892   2.50195926  2.52256149
  2.52256597  2.53038959  2.5303901   2.55547331  2.55547335  2.58629908
  2.58630106  2.58993811  2.61253745  2.61253824  2.66518551  2.69277632
  2.71480685  2.7148082   2.7661902   2.79279632  2.79279952  2.91782687
  2.91782989  3.01240168  3.0876654   3.08766651  3.12783075  3.12783137
  3.14415862  3.18551903  3.18551917  3.27137964  3.34283434  3.34283642
  3.35499537  3.35499792  3.40657418  3.42372202  3.42372235  3.47626369
  3.47987246  3.47987322  3.48358959  3.4835922   3.53960594  3.5396073
  3.61966829  3.62730906  3.63946754  3.84171374  5.1211006   5.12110096
  5.15836021  5.15836155  5.17446816  5.35923216  5.7891259   5.79091386
  5.82408539  5.82409932  5.8250351   5.8250374   5.8658999   5.86590221
  5.86999888  5.87001504  5.9286911   5.93156621  6.0211605   6.0658882
  6.07260936  6.09247423  6.09247573  6.09687802  6.10378606  6.10378752
  6.12866476  6.1831417   6.21059568  6.21061149  6.25970419  6.25971897
  6.33305804  6.33306094  6.34445083  6.34445364  6.41654403  6.41654455
  6.42967869  6.46029954  6.48633174  6.48633319  6.58706057  6.58707153
  6.68235101  6.68523806  6.68524549  6.68833012  6.6883328   6.69545502
  6.69545515  6.70990857  6.76687465  6.78404149  7.82858459  7.87680043
  7.87877592  7.87880275  7.90096917  7.90101274  7.98369447  7.98375332
  8.02903486  8.04539611  8.06315623  8.06319977  8.13711182  8.13945115
  8.139475    8.14859721  8.17690851  8.21985329  8.21986599  8.25250513
  8.2525453   8.27572387  8.286142    8.28614474  8.49933529  8.49935044
  8.50240976  8.55777407  8.57347104  8.57724118  8.57726406  8.60406813
  8.60407375  8.61113435  8.61113811  8.73317995  8.75347544  8.79153716
  8.79155987  8.81036282  8.81039454  8.84606225  8.91365198  8.9407822
  9.41633869  9.41634066  9.41930444  9.41930949 11.03603957 11.06123183]
nelec by numeric integration = 14.000000556192413
    CPU time for vxc     50.57 sec, wall time      0.40 sec
    CPU time for df-vj      9.42 sec, wall time      0.07 sec
E1 = -51.93756233768526  Ecoul = 26.26897872465056  Exc = -4.320084425851857
cycle= 7 E= -11.2389115858285  delta_E= -2.17e-10  |g|= 4.59e-06  |ddm|= 5.37e-05
    CPU time for cycle= 7    128.65 sec, wall time      1.02 sec
  HOMO = -0.268889897442203  LUMO = -0.0264365180753781
  mo_energy =
[-0.52322191 -0.46337712 -0.32790081 -0.3279006  -0.30331191 -0.30331172
 -0.2688899  -0.02643652 -0.02643609 -0.02062    -0.01243332  0.01515183
  0.01515201  0.03629419  0.07759653  0.09444433  0.09444467  0.12006315
  0.12006371  0.12589625  0.12589811  0.12902821  0.21194788  0.24391799
  0.24391906  0.24709419  0.25404495  0.25404504  0.28148829  0.28472291
  0.28472617  0.30312206  0.34664767  0.34664834  0.36020982  0.42729684
  0.44421898  0.46279336  0.46279371  0.4706193   0.56082049  0.56921988
  0.56922032  0.57960404  0.57960462  0.59815014  0.62564627  0.62564647
  0.64222301  0.64222456  0.69544971  0.69545043  0.72371359  0.76037781
  0.76970178  0.78615596  0.78615875  0.78977057  0.80547191  0.80547316
  0.81002001  0.84047907  0.86057841  0.86057873  0.88802634  0.88802685
  0.8928812   0.89288443  0.97568417  0.97568502  0.98723828  1.00710999
  1.01037501  1.08732254  1.08732384  1.12815814  1.14716264  1.14716389
  1.1531346   1.15739397  1.15739543  1.28882186  1.28882254  1.31470225
  1.31470319  1.31773825  1.42806205  1.46950809  1.46950954  1.48302215
  1.4830227   1.54993439  1.64279316  1.64279336  1.6518098   1.7158294
  1.77507008  1.77958678  1.77958731  1.84564031  1.84564049  1.88736369
  1.9041774   1.90417781  1.9402751   1.95307556  2.00143758  2.0240347
  2.0377052   2.03770561  2.06499154  2.06499168  2.11389976  2.11882138
  2.11882279  2.15177706  2.17701076  2.18287475  2.20114327  2.20114376
  2.21337084  2.21337189  2.23592935  2.23648937  2.24554646  2.24554773
  2.27873666  2.27873945  2.33014854  2.33015463  2.33313125  2.33712137
  2.43559409  2.44602418  2.44602541  2.45818667  2.50195734  2.52255921
  2.52256369  2.53038744  2.53038795  2.55547092  2.55547096  2.58629673
  2.58629871  2.58993554  2.61253516  2.61253596  2.66518275  2.69277426
  2.71480451  2.71480587  2.76618805  2.79279419  2.79279738  2.91782462
  2.91782764  3.01239933  3.08766284  3.08766394  3.12782785  3.12782847
  3.14415638  3.18551669  3.18551683  3.2713774   3.342832    3.34283409
  3.35499306  3.35499561  3.40657169  3.42371946  3.42371979  3.47626114
  3.47986981  3.47987058  3.48358707  3.48358968  3.53960327  3.53960463
  3.61966557  3.62730657  3.63946481  3.84171038  5.12109745  5.12109781
  5.15835707  5.15835841  5.1744648   5.35922887  5.7891237   5.79091166
  5.82408317  5.82409711  5.82503286  5.82503516  5.86589769  5.86589999
  5.86999666  5.87001282  5.92868888  5.93156398  6.02115817  6.06588574
  6.07260693  6.0924718   6.09247331  6.09687565  6.10378367  6.10378512
  6.1286621   6.18313902  6.21059305  6.21060886  6.25970151  6.25971629
  6.33305536  6.33305826  6.34444811  6.34445092  6.41654149  6.41654201
  6.42967598  6.46029686  6.48632912  6.48633057  6.58705784  6.58706881
  6.68234831  6.68523536  6.68524279  6.68832738  6.68833007  6.69545235
  6.69545248  6.70990583  6.76687195  6.78403877  7.8285821   7.87679799
  7.87877347  7.87880029  7.90096673  7.90101029  7.98369204  7.98375089
  8.0290324   8.04539367  8.06315382  8.06319736  8.1371092   8.1394486
  8.13947245  8.14859456  8.17690614  8.21985069  8.21986339  8.25250254
  8.25254272  8.27572143  8.2861395   8.28614225  8.49933272  8.49934788
  8.50240728  8.5577714   8.57346855  8.57723862  8.5772615   8.6040657
  8.60407131  8.61113187  8.61113563  8.73317743  8.75347279  8.79153475
  8.79155746  8.81036042  8.81039213  8.84605976  8.91364892  8.94077923
  9.41633572  9.41633769  9.41930147  9.41930651 11.03603604 11.06122829]
nelec by numeric integration = 14.00000055620455
    CPU time for vxc     47.42 sec, wall time      0.38 sec
    CPU time for df-vj     10.91 sec, wall time      0.09 sec
E1 = -51.93758135221256  Ecoul = 26.269001552524458  Exc = -4.320088239201226
Extra cycle  E= -11.2389115858313  delta_E= -2.77e-12  |g|= 3.99e-06  |ddm|= 2.25e-05
    CPU time for scf_cycle   1456.58 sec, wall time     11.94 sec
    CPU time for SCF   1456.59 sec, wall time     11.94 sec
converged SCF energy = -11.2389115858313
