#INFO: **** input file is /home/nkousuke/lustre/toBeSync/turboRVB/05turbo-genius-development/turbogenius_paper/04data/sanity_checks/03pyscf_HF_turbo_VMC_via_trexio/00open_boundary/results/Be/pyscf-HF-workflow/run.py ****

from pyscf_wrapper import Pyscf_wrapper

# input variables
pyscf_chkfile="pyscf.chk"
structure_file="Be.xyz"

# input variables
omp_num_threads=128
charge=0
spin=0
basis="ccecp-ccpv6z"
ecp="ccecp"
scf_method="HF"
dft_xc="NA"
solver_newton=False
MP2_flag=False
CCSD_flag=False
pyscf_output="out.pyscf"
twist_average=False
exp_to_discard=0.0
kpt=[0.0, 0.0, 0.0]
kpt_grid=[1, 1, 1]
smearing_method="fermi"
smearing_sigma=0.0

pyscf_calc=Pyscf_wrapper(
                        structure_file=structure_file,
                        chkfile=pyscf_chkfile,
                        )

pyscf_calc.run_pyscf(
                  omp_num_threads=omp_num_threads,
                  charge=charge,
                  spin=spin,
                  basis=basis,
                  ecp=ecp,
                  scf_method=scf_method,
                  dft_xc=dft_xc,
                  solver_newton=solver_newton,
                  MP2_flag=MP2_flag,
                  CCSD_flag=CCSD_flag,
                  pyscf_output=pyscf_output,
                  twist_average=twist_average,
                  exp_to_discard=exp_to_discard,
                  kpt=kpt,
                  kpt_grid=kpt_grid,
                  smearing_method=smearing_method,
                  smearing_sigma=smearing_sigma
                  )
                #INFO: ******************** input file end ********************


System: uname_result(system='Linux', node='spcc-200', release='5.4.0-66-generic', version='#74-Ubuntu SMP Wed Jan 27 22:54:38 UTC 2021', machine='x86_64', processor='x86_64')  Threads 128
Python 3.7.3 (default, Mar 27 2019, 22:11:17) 
[GCC 7.3.0]
numpy 1.20.1  scipy 1.7.3
Date: Mon Dec 19 18:07:29 2022
PySCF version 2.0.1
PySCF path  /home/nkousuke/application/anaconda3/lib/python3.7/site-packages/pyscf

[CONFIG] conf_file /home/nkousuke/.pyscf_conf.py
[INPUT] verbose = 5
[INPUT] max_memory = 507480.9375 
[INPUT] num. atoms = 1
[INPUT] num. electrons = 2
[INPUT] charge = 0
[INPUT] spin (= nelec alpha-beta = 2S) = 0
[INPUT] symmetry False subgroup None
[INPUT] Mole.unit = A
[INPUT]  1 Be     0.000000000000   0.000000000000   0.000000000000 AA    0.000000000000   0.000000000000   0.000000000000 Bohr
[INPUT] ---------------- BASIS SET ---------------- 
[INPUT] l, kappa, [nprim/nctr], expnt,             c_1 c_2 ...
[INPUT] Be
[INPUT] 0    0    [9    /1   ]  15.965877         0.00069
                                7.367361          -0.000377
                                3.399626          0.024069
                                1.568738          -0.111989
                                0.723885          -0.076442
                                0.334032          0.135744
                                0.154137          0.418515
                                0.071126          0.462924
                                0.032821          0.128266
[INPUT] 0    0    [1    /1   ]  0.663553             1
[INPUT] 0    0    [1    /1   ]  0.311589             1
[INPUT] 0    0    [1    /1   ]  0.146315             1
[INPUT] 0    0    [1    /1   ]  0.068706             1
[INPUT] 0    0    [1    /1   ]  0.032263             1
[INPUT] 1    0    [9    /1   ]  16.554942         0.000341
                                7.52605           0.003228
                                3.421421          0.01766
                                1.555414          0.038664
                                0.707108          0.098639
                                0.321458          0.231259
                                0.146138          0.387109
                                0.066436          0.339448
                                0.030203          0.089102
[INPUT] 1    0    [1    /1   ]  3.228674             1
[INPUT] 1    0    [1    /1   ]  1.379869             1
[INPUT] 1    0    [1    /1   ]  0.589728             1
[INPUT] 1    0    [1    /1   ]  0.252038             1
[INPUT] 1    0    [1    /1   ]  0.107716             1
[INPUT] 2    0    [1    /1   ]  1.567419             1
[INPUT] 2    0    [1    /1   ]  0.842974             1
[INPUT] 2    0    [1    /1   ]  0.45336              1
[INPUT] 2    0    [1    /1   ]  0.243822             1
[INPUT] 2    0    [1    /1   ]  0.13113              1
[INPUT] 3    0    [1    /1   ]  1.15843              1
[INPUT] 3    0    [1    /1   ]  0.644955             1
[INPUT] 3    0    [1    /1   ]  0.359078             1
[INPUT] 3    0    [1    /1   ]  0.199916             1
[INPUT] 4    0    [1    /1   ]  1.10506              1
[INPUT] 4    0    [1    /1   ]  0.553328             1
[INPUT] 4    0    [1    /1   ]  0.277063             1
[INPUT] 5    0    [1    /1   ]  0.748694             1
[INPUT] 5    0    [1    /1   ]  0.376945             1
[INPUT] 6    0    [1    /1   ]  0.587011             1

nuclear repulsion = 0
number of shells = 27
number of NR pGTOs = 171
number of NR cGTOs = 139
basis = ccecp-ccpv6z
ecp = ccecp
CPU time:         8.05


******** <class 'pyscf.scf.hf.RHF'> ********
method = RHF
initial guess = minao
damping factor = 0
level_shift factor = 0
DIIS = <class 'pyscf.scf.diis.CDIIS'>
diis_start_cycle = 1
diis_space = 8
SCF conv_tol = 1e-09
SCF conv_tol_grad = None
SCF max_cycles = 200
direct_scf = True
direct_scf_tol = 1e-13
chkfile to save SCF result = pyscf.chk
max_memory 507480 MB (current use 106 MB)
Set gradient conv threshold to 3.16228e-05
E1 = -1.3051338678111883  E_coul = 0.3432412920754187
init E= -0.96189257573577
cond(S) = 19948.060833432988
    CPU time for initialize scf    213.30 sec, wall time      2.47 sec
  HOMO = -0.309325641955365  LUMO = 0.0444829437254331
  mo_energy =
[-0.30932564  0.04448294  0.04448294  0.04448294  0.07471     0.19267791
  0.19267791  0.19267791  0.32263611  0.32263611  0.32263611  0.32263611
  0.32263611  0.35453557  0.6064072   0.6064072   0.6064072   0.69607704
  0.69607704  0.69607704  0.69607704  0.69607704  0.69607704  0.69607704
  0.89433056  0.89433056  0.89433056  0.89433056  0.89433056  1.06042286
  1.31047891  1.31047891  1.31047891  1.31047891  1.31047891  1.31047891
  1.31047891  1.31047891  1.31047891  1.6079679   1.6079679   1.6079679
  1.7479133   1.7479133   1.7479133   1.7479133   1.7479133   1.7479133
  1.7479133   1.98716302  1.98716302  1.98716302  1.98716302  1.98716302
  2.20934389  2.20934389  2.20934389  2.20934389  2.20934389  2.20934389
  2.20934389  2.20934389  2.20934389  2.20934389  2.20934389  2.76876397
  3.28316295  3.28316295  3.28316295  3.28316295  3.28316295  3.28316295
  3.28316295  3.28316295  3.28316295  3.69408086  3.69408086  3.69408086
  3.69408086  3.69408086  3.69408086  3.69408086  4.14030033  4.14030033
  4.14030033  4.14030033  4.14030033  4.1714446   4.1714446   4.1714446
  4.26447468  4.26447468  4.26447468  4.26447468  4.26447468  4.26447468
  4.26447468  4.26447468  4.26447468  4.26447468  4.26447468  4.26447468
  4.26447468  5.47107615  5.47107615  5.47107615  5.47107615  5.47107615
  5.47107615  5.47107615  5.47107615  5.47107615  5.47107615  5.47107615
  6.70922182  7.38371784  7.38371784  7.38371784  7.38371784  7.38371784
  7.38371784  7.38371784  7.38371784  7.38371784  7.45801858  7.45801858
  7.45801858  7.45801858  7.45801858  7.45801858  7.45801858  8.36476683
  8.36476683  8.36476683  8.36476683  8.36476683 10.86067529 10.86067529
 10.86067529]
E1 = -1.3051337032598727  E_coul = 0.3432411272451254
cycle= 1 E= -0.961892576014747  delta_E= -2.79e-10  |g|= 3.41e-06  |ddm|= 0.00114
    CPU time for cycle= 1     60.43 sec, wall time      0.47 sec
  HOMO = -0.309325724386874  LUMO = 0.0444828675697881
  mo_energy =
[-0.30932572  0.04448287  0.04448287  0.04448287  0.07470996  0.19267778
  0.19267778  0.19267778  0.32263609  0.32263609  0.32263609  0.32263609
  0.32263609  0.35453554  0.60640711  0.60640711  0.60640711  0.69607701
  0.69607701  0.69607701  0.69607701  0.69607701  0.69607701  0.69607701
  0.89433042  0.89433042  0.89433042  0.89433042  0.89433042  1.06042274
  1.3104789   1.3104789   1.3104789   1.3104789   1.3104789   1.3104789
  1.3104789   1.3104789   1.3104789   1.60796766  1.60796766  1.60796766
  1.74791318  1.74791318  1.74791318  1.74791318  1.74791318  1.74791318
  1.74791318  1.98716285  1.98716285  1.98716285  1.98716285  1.98716285
  2.20934387  2.20934387  2.20934387  2.20934387  2.20934387  2.20934387
  2.20934387  2.20934387  2.20934387  2.20934387  2.20934387  2.76876374
  3.28316275  3.28316275  3.28316275  3.28316275  3.28316275  3.28316275
  3.28316275  3.28316275  3.28316275  3.69408062  3.69408062  3.69408062
  3.69408062  3.69408062  3.69408062  3.69408062  4.14030007  4.14030007
  4.14030007  4.14030007  4.14030007  4.17144432  4.17144432  4.17144432
  4.26447454  4.26447454  4.26447454  4.26447454  4.26447454  4.26447454
  4.26447454  4.26447454  4.26447454  4.26447454  4.26447454  4.26447454
  4.26447454  5.47107587  5.47107587  5.47107587  5.47107587  5.47107587
  5.47107587  5.47107587  5.47107587  5.47107587  5.47107587  5.47107587
  6.70922148  7.38371754  7.38371754  7.38371754  7.38371754  7.38371754
  7.38371754  7.38371754  7.38371754  7.38371754  7.45801828  7.45801828
  7.45801828  7.45801828  7.45801828  7.45801828  7.45801828  8.3647665
  8.3647665   8.3647665   8.3647665   8.3647665  10.86067487 10.86067487
 10.86067487]
E1 = -1.3051336700856777  E_coul = 0.3432410940660841
Extra cycle  E= -0.961892576019594  delta_E= -4.85e-12  |g|= 4.76e-07  |ddm|= 0.000116
    CPU time for scf_cycle    333.19 sec, wall time      3.49 sec
    CPU time for SCF    333.19 sec, wall time      3.49 sec
converged SCF energy = -0.961892576019594
