#INFO: **** input file is /home/nkousuke/lustre/toBeSync/turboRVB/05turbo-genius-development/turbogenius_paper/04data/sanity_checks/03pyscf_HF_turbo_VMC_via_trexio/00open_boundary/results/CO2/pyscf-HF-workflow/run.py ****

from pyscf_wrapper import Pyscf_wrapper

# input variables
pyscf_chkfile="pyscf.chk"
structure_file="CO2.xyz"

# input variables
omp_num_threads=128
charge=0
spin=0
basis="ccecp-ccpvqz"
ecp="ccecp"
scf_method="HF"
dft_xc="NA"
solver_newton=False
MP2_flag=False
CCSD_flag=False
pyscf_output="out.pyscf"
twist_average=False
exp_to_discard=0.0
kpt=[0.0, 0.0, 0.0]
kpt_grid=[1, 1, 1]
smearing_method="fermi"
smearing_sigma=0.0

pyscf_calc=Pyscf_wrapper(
                        structure_file=structure_file,
                        chkfile=pyscf_chkfile,
                        )

pyscf_calc.run_pyscf(
                  omp_num_threads=omp_num_threads,
                  charge=charge,
                  spin=spin,
                  basis=basis,
                  ecp=ecp,
                  scf_method=scf_method,
                  dft_xc=dft_xc,
                  solver_newton=solver_newton,
                  MP2_flag=MP2_flag,
                  CCSD_flag=CCSD_flag,
                  pyscf_output=pyscf_output,
                  twist_average=twist_average,
                  exp_to_discard=exp_to_discard,
                  kpt=kpt,
                  kpt_grid=kpt_grid,
                  smearing_method=smearing_method,
                  smearing_sigma=smearing_sigma
                  )
                #INFO: ******************** input file end ********************


System: uname_result(system='Linux', node='spcc-200', release='5.4.0-66-generic', version='#74-Ubuntu SMP Wed Jan 27 22:54:38 UTC 2021', machine='x86_64', processor='x86_64')  Threads 128
Python 3.7.3 (default, Mar 27 2019, 22:11:17) 
[GCC 7.3.0]
numpy 1.20.1  scipy 1.7.3
Date: Mon Dec 19 18:09:27 2022
PySCF version 2.0.1
PySCF path  /home/nkousuke/application/anaconda3/lib/python3.7/site-packages/pyscf

[CONFIG] conf_file /home/nkousuke/.pyscf_conf.py
[INPUT] verbose = 5
[INPUT] max_memory = 507486.125 
[INPUT] num. atoms = 3
[INPUT] num. electrons = 16
[INPUT] charge = 0
[INPUT] spin (= nelec alpha-beta = 2S) = 0
[INPUT] symmetry False subgroup None
[INPUT] Mole.unit = A
[INPUT]  1 C      0.000000000000   0.000000000000   0.000000000000 AA    0.000000000000   0.000000000000   0.000000000000 Bohr
[INPUT]  2 O      0.000000000000   0.000000000000   1.160000000000 AA    0.000000000000   0.000000000000   2.192082304495 Bohr
[INPUT]  3 O      0.000000000000   0.000000000000  -1.160000000000 AA    0.000000000000   0.000000000000  -2.192082304495 Bohr
[INPUT] ---------------- BASIS SET ---------------- 
[INPUT] l, kappa, [nprim/nctr], expnt,             c_1 c_2 ...
[INPUT] O
[INPUT] 0    0    [9    /1   ]  54.775216         -0.0012444
                                25.616801         0.010733
                                11.980245         0.0018889
                                6.992317          -0.1742537
                                2.620277          0.0017622
                                1.225429          0.3161846
                                0.577797          0.4512023
                                0.268022          0.3121534
                                0.125346          0.0511167
[INPUT] 0    0    [1    /1   ]  1.351771             1
[INPUT] 0    0    [1    /1   ]  0.843157             1
[INPUT] 0    0    [1    /1   ]  0.22438              1
[INPUT] 1    0    [9    /1   ]  22.217266         0.0104866
                                10.74755          0.0366435
                                5.315785          0.0803674
                                2.660761          0.162701
                                1.331816          0.2377791
                                0.678626          0.2811422
                                0.333673          0.2643189
                                0.167017          0.1466014
                                0.083598          0.0458145
[INPUT] 1    0    [1    /1   ]  1.106737             1
[INPUT] 1    0    [1    /1   ]  0.452364             1
[INPUT] 1    0    [1    /1   ]  0.148562             1
[INPUT] 2    0    [1    /1   ]  4.008867             1
[INPUT] 2    0    [1    /1   ]  1.344331             1
[INPUT] 2    0    [1    /1   ]  0.455711             1
[INPUT] 3    0    [1    /1   ]  2.763115             1
[INPUT] 3    0    [1    /1   ]  0.876289             1
[INPUT] 4    0    [1    /1   ]  1.759081             1
[INPUT] C
[INPUT] 0    0    [9    /1   ]  13.073594         0.0051583
                                6.541187          0.0603424
                                4.573411          -0.1978471
                                1.637494          -0.081034
                                0.819297          0.2321726
                                0.409924          0.2914643
                                0.2313            0.4336405
                                0.102619          0.213194
                                0.051344          0.0049848
[INPUT] 0    0    [1    /1   ]  0.846879             1
[INPUT] 0    0    [1    /1   ]  0.269659             1
[INPUT] 0    0    [1    /1   ]  0.109576             1
[INPUT] 1    0    [9    /1   ]  9.934169          0.0209076
                                3.886955          0.0572698
                                1.871016          0.1122682
                                0.935757          0.2130082
                                0.468003          0.2835815
                                0.239473          0.3011207
                                0.117063          0.2016934
                                0.058547          0.0453575
                                0.029281          0.0029775
[INPUT] 1    0    [1    /1   ]  0.804681             1
[INPUT] 1    0    [1    /1   ]  0.313254             1
[INPUT] 1    0    [1    /1   ]  0.105389             1
[INPUT] 2    0    [1    /1   ]  2.01376              1
[INPUT] 2    0    [1    /1   ]  0.684884             1
[INPUT] 2    0    [1    /1   ]  0.240171             1
[INPUT] 3    0    [1    /1   ]  0.457302             1
[INPUT] 3    0    [1    /1   ]  1.32493              1
[INPUT] 4    0    [1    /1   ]  1.03418              1

nuclear repulsion = 30.1083585523448
number of shells = 42
number of NR pGTOs = 258
number of NR cGTOs = 162
basis = ccecp-ccpvqz
ecp = ccecp
CPU time:         6.01


******** <class 'pyscf.scf.hf.RHF'> ********
method = RHF
initial guess = minao
damping factor = 0
level_shift factor = 0
DIIS = <class 'pyscf.scf.diis.CDIIS'>
diis_start_cycle = 1
diis_space = 8
SCF conv_tol = 1e-09
SCF conv_tol_grad = None
SCF max_cycles = 200
direct_scf = True
direct_scf_tol = 1e-13
chkfile to save SCF result = pyscf.chk
max_memory 507486 MB (current use 106 MB)
Set gradient conv threshold to 3.16228e-05
E1 = -118.81216625703277  E_coul = 51.76667295029253
init E= -36.9371347543954
cond(S) = 19188.68143991969
    CPU time for initialize scf    199.22 sec, wall time      1.75 sec
  HOMO = -0.508085169456707  LUMO = 0.0799652022173129
  mo_energy =
[-1.92373724 -1.66859184 -0.81452411 -0.67619865 -0.67119581 -0.67119581
 -0.50808517 -0.50808517  0.0799652   0.10061374  0.10061374  0.24040913
  0.32979524  0.32979524  0.34078219  0.39930636  0.43070267  0.43070267
  0.48778328  0.59355357  0.59355357  0.60474517  0.60474517  0.89636162
  0.95073539  1.01147858  1.01147858  1.12566695  1.1824246   1.1824246
  1.32511576  1.41942744  1.45813332  1.45813332  1.52034547  1.52992876
  1.52992876  1.54049396  1.54049396  1.6459288   1.6459288   1.76113827
  1.76113827  2.0544774   2.11026599  2.11026599  2.23675926  2.23675926
  2.24632839  2.24632839  2.24734984  2.24734984  2.44790217  2.70847685
  2.8813754   2.8813754   2.88853085  2.90018952  2.90018952  3.19662831
  3.3360541   3.3360541   3.55137904  3.55137904  3.75446021  3.75446021
  3.84282435  4.01328665  4.01328665  4.12287966  4.12287966  4.22179137
  4.22179137  4.22268915  4.42873816  4.49554289  4.49554289  4.56424142
  4.56424142  4.78985768  4.78985768  4.91747499  5.16506003  5.16506003
  5.25965156  5.25965156  5.31175054  5.40102151  5.40102151  5.74199819
  5.74199819  5.78247069  5.78247069  5.86504111  5.86504111  5.964633
  6.04626182  6.28495303  6.28495303  6.30345672  6.30345672  6.87125998
  6.94291431  6.94291431  6.94398545  6.94562647  6.94562647  7.44947444
  7.44947444  7.61253127  7.61253127  8.24307279  8.42413543  8.75972133
  8.75972133  8.78852212  8.78852212  8.82305863  8.82629456  8.82629456
  9.17020712  9.17020712  9.29249877  9.29249877  9.65488679  9.65488679
  9.68555251 10.33365218 10.33365218 10.73766556 10.78897246 10.78897246
 10.96891681 10.9889579  10.9889579  11.67825285 11.67825285 11.70094913
 11.70094913 11.86852148 11.86852148 12.24212988 12.24212988 12.60779972
 12.60779972 12.81182046 12.81182046 12.89698177 12.89698177 13.22831016
 13.22831016 13.41572913 13.51324159 14.16770765 14.29387587 14.29387587
 15.77604049 15.77604049 16.45242593 20.04122832 32.82143444 32.84452985]
E1 = -120.23449778495251  E_coul = 53.113878985543494
cycle= 1 E= -37.0122602470642  delta_E= -0.0751  |g|= 0.729  |ddm|= 3.35
    CPU time for cycle= 1     33.31 sec, wall time      0.30 sec
  HOMO = -0.524827701363411  LUMO = 0.111766537348795
  mo_energy =
[-1.58231201 -1.51062044 -0.76975116 -0.73347682 -0.73347682 -0.70132752
 -0.5248277  -0.5248277   0.11176654  0.16050273  0.16050273  0.26711841
  0.2819849   0.2819849   0.38998944  0.43626689  0.45638874  0.45638874
  0.49335566  0.53750455  0.53750455  0.62928924  0.62928924  0.93325994
  1.00960177  1.00960177  1.012114    1.165596    1.20624687  1.20624687
  1.30986292  1.40618639  1.40618639  1.4559283   1.49984574  1.49984574
  1.54249181  1.5788683   1.5788683   1.64769774  1.64769774  1.7117794
  1.7117794   1.96749436  1.96749436  2.06100911  2.20413103  2.20413103
  2.27397884  2.27397884  2.33935423  2.33935423  2.47960508  2.83021875
  2.90288358  2.90288358  2.90503566  2.90503566  2.9589841   3.19339219
  3.40093614  3.40093614  3.63129826  3.63129826  3.80148359  3.80148359
  3.86504954  4.1130107   4.1130107   4.23100995  4.23100995  4.35919315
  4.37083192  4.37083192  4.48667879  4.5718505   4.5718505   4.66821954
  4.66821954  4.79220411  4.79220411  4.95869664  4.97120794  4.97120794
  5.27751852  5.2947669   5.2947669   5.31668336  5.31668336  5.56379016
  5.56379016  5.58909389  5.58909389  5.74709334  5.74709334  6.04630544
  6.060102    6.15856933  6.15856933  6.23020726  6.23020726  6.80901216
  6.80901216  6.9357739   7.01528662  7.0451967   7.0451967   7.55535647
  7.55535647  7.7335749   7.7335749   8.34360752  8.62035997  8.82421366
  8.91153802  8.91153802  8.93922806  8.93922806  8.96538532  8.96538532
  9.20961067  9.20961067  9.41728285  9.41728285  9.75495964  9.75495964
  9.78713793 10.49834624 10.49834624 10.89527507 10.89527507 10.92730868
 11.05720292 11.11120366 11.11120366 11.90336623 11.90336623 11.92448941
 11.92448941 12.10204065 12.10204065 12.45629996 12.45629996 12.83303099
 12.83303099 13.00864686 13.00864686 13.16318919 13.16318919 13.47032569
 13.47032569 13.60109179 13.74321334 14.32741692 14.49616756 14.49616756
 15.97843367 15.97843367 16.60865007 19.8256909  33.15448477 33.18151306]
E1 = -119.91167955031233  E_coul = 52.73345222870165
cycle= 2 E= -37.0698687692658  delta_E= -0.0576  |g|= 0.502  |ddm|= 1.25
    CPU time for cycle= 2    101.59 sec, wall time      0.84 sec
  HOMO = -0.55530278544384  LUMO = 0.12853276577515
  mo_energy =
[-1.56080018 -1.50446573 -0.8103476  -0.7464534  -0.72351435 -0.72351435
 -0.55530279 -0.55530279  0.12853277  0.1912047   0.1912047   0.25784163
  0.31694832  0.31694832  0.38560185  0.44704941  0.44704941  0.46608941
  0.49440048  0.58120573  0.58120573  0.62077142  0.62077142  0.93279228
  0.99078513  1.02438074  1.02438074  1.20192863  1.20604175  1.20604175
  1.33355314  1.45240513  1.48914856  1.48914856  1.49935988  1.49935988
  1.55977306  1.57241595  1.57241595  1.69303498  1.69303498  1.71465741
  1.71465741  2.06841209  2.06841209  2.08492329  2.23506149  2.23506149
  2.28539604  2.28539604  2.30673026  2.30673026  2.48572721  2.77580013
  2.91400305  2.91400305  2.92189357  2.92189357  2.93934212  3.23779218
  3.38849092  3.38849092  3.60823347  3.60823347  3.80315443  3.80315443
  3.87838952  4.08700793  4.08700793  4.19758428  4.19758428  4.30982109
  4.31112183  4.31112183  4.4931506   4.56614225  4.56614225  4.62944114
  4.62944114  4.82497424  4.82497424  4.97077062  5.09073917  5.09073917
  5.31878773  5.31878773  5.36096029  5.38227486  5.38227486  5.71433889
  5.71433889  5.71854479  5.71854479  5.86060001  5.86060001  6.04399061
  6.08792987  6.28591451  6.28591451  6.31319504  6.31319504  6.92575614
  6.92575614  6.96257358  6.98504475  7.0300074   7.0300074   7.52817397
  7.52817397  7.70166258  7.70166258  8.32904116  8.54389819  8.85645621
  8.85645621  8.86871894  8.88458322  8.88458322  8.92219638  8.92219638
  9.23552305  9.23552305  9.38077586  9.38077586  9.73995172  9.73995172
  9.78138495 10.44367128 10.44367128 10.85984516 10.87324672 10.87324672
 11.06066351 11.08494443 11.08494443 11.80563904 11.80563904 11.82783485
 11.82783485 12.00147508 12.00147508 12.36781094 12.36781094 12.74170055
 12.74170055 12.93396365 12.93396365 13.03898704 13.03898704 13.36078632
 13.36078632 13.54123234 13.64820687 14.28626834 14.41827698 14.41827698
 15.89939067 15.89939067 16.57280682 20.03749181 32.98694077 33.01106526]
E1 = -120.25534913028963  E_coul = 53.03432401457846
cycle= 3 E= -37.1126665633663  delta_E= -0.0428  |g|= 0.0431  |ddm|= 0.546
    CPU time for cycle= 3     68.14 sec, wall time      0.54 sec
  HOMO = -0.54234811710919  LUMO = 0.131966013474989
  mo_energy =
[-1.54679393 -1.49133222 -0.79958497 -0.73918474 -0.71369108 -0.71369108
 -0.54234812 -0.54234812  0.13196601  0.20132417  0.20132417  0.25907414
  0.31963321  0.31963321  0.38742889  0.44926438  0.44926438  0.47617103
  0.49590843  0.58392409  0.58392409  0.6244273   0.6244273   0.93825003
  0.99448576  1.02989471  1.02989471  1.21205781  1.21205781  1.21262227
  1.33772023  1.45811324  1.49456993  1.49456993  1.50309746  1.50309746
  1.56807514  1.57807057  1.57807057  1.69800183  1.69800183  1.7168245
  1.7168245   2.07234879  2.07234879  2.09094993  2.23929688  2.23929688
  2.29536743  2.29536743  2.31721206  2.31721206  2.49168002  2.78248456
  2.92176964  2.92176964  2.92826523  2.92826523  2.94690151  3.24931424
  3.39693264  3.39693264  3.61638593  3.61638593  3.8125393   3.8125393
  3.88877651  4.10096773  4.10096773  4.20832316  4.20832316  4.32004058
  4.32358405  4.32358405  4.5064592   4.57479017  4.57479017  4.63774706
  4.63774706  4.83604545  4.83604545  4.98057427  5.09268687  5.09268687
  5.32877509  5.32877509  5.3725926   5.38852661  5.38852661  5.71716139
  5.71716139  5.72500054  5.72500054  5.86900118  5.86900118  6.05647654
  6.09885572  6.29294918  6.29294918  6.32489989  6.32489989  6.93248519
  6.93248519  6.9773498   6.99745684  7.04520445  7.04520445  7.54484168
  7.54484168  7.71953262  7.71953262  8.3457322   8.56512377  8.8696898
  8.8696898   8.88027606  8.89775377  8.89775377  8.93623009  8.93623009
  9.25011736  9.25011736  9.39444596  9.39444596  9.75476311  9.75476311
  9.79982044 10.46077515 10.46077515 10.87717155 10.88886775 10.88886775
 11.07835882 11.10110315 11.10110315 11.82480971 11.82480971 11.84714463
 11.84714463 12.02037304 12.02037304 12.38779541 12.38779541 12.76177227
 12.76177227 12.95468481 12.95468481 13.06188551 13.06188551 13.38339037
 13.38339037 13.56379997 13.66764603 14.30976695 14.44121202 14.44121202
 15.92145231 15.92145231 16.59565734 20.04629424 33.01848597 33.04232218]
E1 = -120.18404737643068  E_coul = 52.96255677226043
cycle= 4 E= -37.1131320518254  delta_E= -0.000465  |g|= 0.0127  |ddm|= 0.0691
    CPU time for cycle= 4     61.90 sec, wall time      0.49 sec
  HOMO = -0.545930377123745  LUMO = 0.131047708711099
  mo_energy =
[-1.55124169 -1.49621849 -0.80330348 -0.74434246 -0.71713229 -0.71713229
 -0.54593038 -0.54593038  0.13104771  0.1990701   0.1990701   0.25879982
  0.31846017  0.31846017  0.38654028  0.44878278  0.44878278  0.47399231
  0.49533492  0.58248563  0.58248563  0.62356871  0.62356871  0.93659757
  0.99360996  1.0281022   1.0281022   1.20842129  1.2100281   1.2100281
  1.33639278  1.45616642  1.49295075  1.49295075  1.5008178   1.5008178
  1.56497117  1.57630066  1.57630066  1.69664962  1.69664962  1.71506499
  1.71506499  2.06959268  2.06959268  2.08867853  2.23755337  2.23755337
  2.2920156   2.2920156   2.3141988   2.3141988   2.48975843  2.78070145
  2.9192993   2.9192993   2.92588539  2.92588539  2.94459744  3.2451037
  3.39439734  3.39439734  3.61399234  3.61399234  3.80962018  3.80962018
  3.88543965  4.09678045  4.09678045  4.20528673  4.20528673  4.31728706
  4.31998251  4.31998251  4.50217878  4.57226123  4.57226123  4.63543075
  4.63543075  4.83218182  4.83218182  4.97731917  5.08975868  5.08975868
  5.32566807  5.32566807  5.36838354  5.38542801  5.38542801  5.71351997
  5.71351997  5.72119025  5.72119025  5.86513889  5.86513889  6.05287935
  6.09504775  6.28914659  6.28914659  6.3205228   6.3205228   6.92850523
  6.92850523  6.97287474  6.99320903  7.04021057  7.04021057  7.53918516
  7.53918516  7.71382212  7.71382212  8.34050159  8.55868705  8.86555369
  8.86555369  8.87606159  8.89362194  8.89362194  8.93220917  8.93220917
  9.24506697  9.24506697  9.39038781  9.39038781  9.75046209  9.75046209
  9.79470011 10.45629838 10.45629838 10.87221018 10.8842589  10.8842589
 11.07341588 11.09655328 11.09655328 11.81847361 11.81847361 11.84076019
 11.84076019 12.01481892 12.01481892 12.38183631 12.38183631 12.75621349
 12.75621349 12.94881482 12.94881482 13.05439882 13.05439882 13.37595563
 13.37595563 13.55756534 13.66229768 14.30306963 14.4342884  14.4342884
 15.91485107 15.91485107 16.58914397 20.0411878  33.00845842 33.03238974]
E1 = -120.20486897230316  E_coul = 52.983336210197805
cycle= 5 E= -37.1131742097605  delta_E= -4.22e-05  |g|= 0.00212  |ddm|= 0.0206
    CPU time for cycle= 5     81.26 sec, wall time      0.64 sec
  HOMO = -0.545607717748619  LUMO = 0.131016616136022
  mo_energy =
[-1.55105448 -1.49592213 -0.80323162 -0.74441278 -0.71686053 -0.71686053
 -0.54560772 -0.54560772  0.13101662  0.19906209  0.19906209  0.25880521
  0.31836414  0.31836414  0.38646812  0.44880373  0.44880373  0.47397321
  0.49531379  0.5824013   0.5824013   0.62360127  0.62360127  0.93653413
  0.99365956  1.02808025  1.02808025  1.208475    1.20996504  1.20996504
  1.33640566  1.4561308   1.4929169   1.4929169   1.50074708  1.50074708
  1.56488057  1.5763209   1.5763209   1.69667427  1.69667427  1.71496257
  1.71496257  2.06951369  2.06951369  2.0887208   2.23748321  2.23748321
  2.29208479  2.29208479  2.3142505   2.3142505   2.48981387  2.78076835
  2.91928617  2.91928617  2.92586565  2.92586565  2.94459575  3.24516282
  3.39430552  3.39430552  3.61390674  3.61390674  3.80958463  3.80958463
  3.88540806  4.09678546  4.09678546  4.20535746  4.20535746  4.31740613
  4.32002957  4.32002957  4.50224058  4.57236143  4.57236143  4.63545074
  4.63545074  4.83222958  4.83222958  4.97742365  5.08965777  5.08965777
  5.32570646  5.32570646  5.36849539  5.38533623  5.38533623  5.7134787
  5.7134787   5.7212488   5.7212488   5.86511386  5.86511386  6.05304547
  6.09516115  6.28912524  6.28912524  6.32059111  6.32059111  6.92851543
  6.92851543  6.97303259  6.99326999  7.04035086  7.04035086  7.53936525
  7.53936525  7.71398148  7.71398148  8.34073902  8.55895783  8.86544837
  8.86544837  8.87617416  8.89351677  8.89351677  8.93220036  8.93220036
  9.24517996  9.24517996  9.39037273  9.39037273  9.75051094  9.75051094
  9.79482407 10.45649598 10.45649598 10.87252521 10.88431886 10.88431886
 11.07357372 11.0967188  11.0967188  11.81850269 11.81850269 11.84078689
 11.84078689 12.01502046 12.01502046 12.38201519 12.38201519 12.75651924
 12.75651924 12.94908817 12.94908817 13.05460806 13.05460806 13.37614157
 13.37614157 13.55791087 13.66269915 14.30342661 14.43459931 14.43459931
 15.9151689  15.9151689  16.58954601 20.04144847 33.00904565 33.03298022]
E1 = -120.20225364777441  E_coul = 52.98071865167505
cycle= 6 E= -37.1131764437545  delta_E= -2.23e-06  |g|= 0.000377  |ddm|= 0.00541
    CPU time for cycle= 6     88.67 sec, wall time      0.70 sec
  HOMO = -0.545657975920442  LUMO = 0.131010549930953
  mo_energy =
[-1.55115119 -1.49601267 -0.80336353 -0.74455386 -0.71697024 -0.71697024
 -0.54565798 -0.54565798  0.13101055  0.19905887  0.19905887  0.25879236
  0.31835839  0.31835839  0.3864442   0.44879175  0.44879175  0.47394024
  0.49530907  0.58240098  0.58240098  0.62358838  0.62358838  0.93649834
  0.99363091  1.02807994  1.02807994  1.20845055  1.20993664  1.20993664
  1.33639345  1.45609913  1.4928905   1.4928905   1.50072603  1.50072603
  1.56484641  1.57628368  1.57628368  1.69663165  1.69663165  1.71497821
  1.71497821  2.06949867  2.06949867  2.08868713  2.23747655  2.23747655
  2.29204654  2.29204654  2.31420556  2.31420556  2.48976758  2.78070289
  2.91925401  2.91925401  2.92583829  2.92583829  2.94454334  3.24511507
  3.39426324  3.39426324  3.61386138  3.61386138  3.80954283  3.80954283
  3.88537701  4.0967228   4.0967228   4.20529037  4.20529037  4.31732845
  4.31995187  4.31995187  4.50217108  4.57228876  4.57228876  4.63539342
  4.63539342  4.83216942  4.83216942  4.97735828  5.08966637  5.08966637
  5.32565082  5.32565082  5.36840772  5.38532408  5.38532408  5.71345515
  5.71345515  5.72118117  5.72118117  5.86507143  5.86507143  6.05296288
  6.09509486  6.28907881  6.28907881  6.32052097  6.32052097  6.92845788
  6.92845788  6.97293878  6.99320464  7.04024853  7.04024853  7.53925728
  7.53925728  7.7138814   7.7138814   8.34063017  8.55883647  8.86536452
  8.86536452  8.87609564  8.89343309  8.89343309  8.93212585  8.93212585
  9.24508997  9.24508997  9.39030173  9.39030173  9.75044372  9.75044372
  9.79474627 10.45641329 10.45641329 10.87239863 10.88425244 10.88425244
 11.07349169 11.0966355  11.0966355  11.81837096 11.81837096 11.84065619
 11.84065619 12.01489739 12.01489739 12.38190198 12.38190198 12.75640379
 12.75640379 12.94898535 12.94898535 13.05445136 13.05445136 13.37599567
 13.37599567 13.55780392 13.66257244 14.30331399 14.43447677 14.43447677
 15.91504832 15.91504832 16.58941791 20.04128399 33.00884768 33.0327807 ]
E1 = -120.20263335262187  E_coul = 52.9810983016806
cycle= 7 E= -37.1131764985964  delta_E= -5.48e-08  |g|= 7.56e-05  |ddm|= 0.000871
    CPU time for cycle= 7     72.33 sec, wall time      0.57 sec
  HOMO = -0.545637136228018  LUMO = 0.131015500880121
  mo_energy =
[-1.55113541 -1.49599684 -0.80335202 -0.74453938 -0.71695517 -0.71695517
 -0.54563714 -0.54563714  0.1310155   0.19907321  0.19907321  0.25879213
  0.31836627  0.31836627  0.38644682  0.44879299  0.44879299  0.47395192
  0.49531314  0.58241398  0.58241398  0.62359209  0.62359209  0.93650548
  0.99363234  1.02809117  1.02809117  1.20847387  1.20994463  1.20994463
  1.3364068   1.45610698  1.49289657  1.49289657  1.50074754  1.50074754
  1.5648581   1.5762906   1.5762906   1.69663772  1.69663772  1.71499835
  1.71499835  2.06952489  2.06952489  2.08870265  2.23748958  2.23748958
  2.29206378  2.29206378  2.31421447  2.31421447  2.48978192  2.78070736
  2.91926552  2.91926552  2.92585176  2.92585176  2.94455266  3.24513885
  3.39426943  3.39426943  3.61386607  3.61386607  3.80955479  3.80955479
  3.88539079  4.0967335   4.0967335   4.20530194  4.20530194  4.31733979
  4.31995973  4.31995973  4.50218873  4.57230257  4.57230257  4.63540185
  4.63540185  4.83218947  4.83218947  4.97737802  5.08970131  5.08970131
  5.32566649  5.32566649  5.36843337  5.38535074  5.38535074  5.71349493
  5.71349493  5.72121517  5.72121517  5.86510175  5.86510175  6.05298067
  6.09511916  6.28911078  6.28911078  6.32054842  6.32054842  6.92849126
  6.92849126  6.97295288  6.99322721  7.04026561  7.04026561  7.5392764
  7.5392764   7.71390073  7.71390073  8.3406505   8.5588545   8.86536914
  8.86536914  8.87612102  8.89343784  8.89343784  8.93213581  8.93213581
  9.24511435  9.24511435  9.39031298  9.39031298  9.75045937  9.75045937
  9.79476275 10.45642817 10.45642817 10.87241916 10.88426789 10.88426789
 11.07351015 11.09665292 11.09665292 11.81838062 11.81838062 11.84066588
 11.84066588 12.01491222 12.01491222 12.38191687 12.38191687 12.7564224
 12.7564224  12.94900406 12.94900406 13.05446567 13.05446567 13.37601083
 13.37601083 13.55782436 13.66259413 14.30333659 14.43449768 14.43449768
 15.91506996 15.91506996 16.58944262 20.04132879 33.00886941 33.03280241]
E1 = -120.20261128469916  E_coul = 52.98107623147675
cycle= 8 E= -37.1131765008776  delta_E= -2.28e-09  |g|= 9.94e-06  |ddm|= 0.000231
    CPU time for cycle= 8     77.26 sec, wall time      0.61 sec
  HOMO = -0.545639274687824  LUMO = 0.131014559250102
  mo_energy =
[-1.551138   -1.49599987 -0.80335331 -0.74454094 -0.71695619 -0.71695619
 -0.54563927 -0.54563927  0.13101456  0.19907026  0.19907026  0.25879191
  0.31836521  0.31836521  0.38644656  0.44879266  0.44879266  0.47394955
  0.49531276  0.58241296  0.58241296  0.62359131  0.62359131  0.9365042
  0.99363157  1.02808942  1.02808942  1.20847     1.20994335  1.20994335
  1.33640582  1.45610578  1.49289548  1.49289548  1.50074573  1.50074573
  1.56485614  1.57628944  1.57628944  1.69663662  1.69663662  1.71499704
  1.71499704  2.06952279  2.06952279  2.08870087  2.23748821  2.23748821
  2.29206125  2.29206125  2.31421238  2.31421238  2.4897805   2.78070605
  2.91926374  2.91926374  2.92585014  2.92585014  2.94455112  3.24513563
  3.39426774  3.39426774  3.61386448  3.61386448  3.80955278  3.80955278
  3.88538869  4.09673086  4.09673086  4.20529971  4.20529971  4.31733765
  4.3199573   4.3199573   4.50218582  4.57230057  4.57230057  4.63540009
  4.63540009  4.8321868   4.8321868   4.97737553  5.08969912  5.08969912
  5.32566423  5.32566423  5.36843021  5.3853483   5.3853483   5.71349216
  5.71349216  5.72121234  5.72121234  5.86509868  5.86509868  6.05297785
  6.09511618  6.28910786  6.28910786  6.32054505  6.32054505  6.92848828
  6.92848828  6.97294965  6.993224    7.04026231  7.04026231  7.53927268
  7.53927268  7.71389688  7.71389688  8.34064702  8.5588502   8.86536667
  8.86536667  8.87611783  8.89343537  8.89343537  8.93213315  8.93213315
  9.24511068  9.24511068  9.39031032  9.39031032  9.75045638  9.75045638
  9.79475933 10.45642491 10.45642491 10.87241517 10.88426483 10.88426483
 11.07350664 11.09664958 11.09664958 11.81837694 11.81837694 11.84066219
 11.84066219 12.01490843 12.01490843 12.38191308 12.38191308 12.75641834
 12.75641834 12.9490001  12.9490001  13.05446113 13.05446113 13.37600641
 13.37600641 13.55782009 13.6625899  14.30333205 14.43449318 14.43449318
 15.91506546 15.91506546 16.58943791 20.04132528 33.00886308 33.03279608]
E1 = -120.2026233325536  E_coul = 52.981088279308935
cycle= 9 E= -37.1131765008998  delta_E= -2.23e-11  |g|= 5.76e-07  |ddm|= 1.98e-05
    CPU time for cycle= 9     63.42 sec, wall time      0.50 sec
  HOMO = -0.545639307088738  LUMO = 0.131014576159156
  mo_energy =
[-1.551138   -1.49599988 -0.80335334 -0.74454098 -0.71695628 -0.71695628
 -0.54563931 -0.54563931  0.13101458  0.19907037  0.19907037  0.25879191
  0.31836526  0.31836526  0.38644658  0.44879265  0.44879265  0.47394962
  0.49531277  0.58241296  0.58241296  0.62359132  0.62359132  0.93650422
  0.99363156  1.02808945  1.02808945  1.20847009  1.20994334  1.20994334
  1.33640584  1.4561058   1.49289547  1.49289547  1.50074579  1.50074579
  1.56485619  1.57628944  1.57628944  1.69663663  1.69663663  1.71499707
  1.71499707  2.06952285  2.06952285  2.08870092  2.23748823  2.23748823
  2.29206129  2.29206129  2.31421238  2.31421238  2.48978054  2.78070604
  2.91926376  2.91926376  2.92585017  2.92585017  2.94455113  3.2451357
  3.39426773  3.39426773  3.61386447  3.61386447  3.80955279  3.80955279
  3.88538873  4.09673087  4.09673087  4.20529973  4.20529973  4.31733766
  4.31995729  4.31995729  4.50218586  4.57230059  4.57230059  4.63540008
  4.63540008  4.83218686  4.83218686  4.97737557  5.08969917  5.08969917
  5.32566426  5.32566426  5.36843031  5.38534835  5.38534835  5.71349224
  5.71349224  5.72121243  5.72121243  5.86509876  5.86509876  6.0529779
  6.09511625  6.28910795  6.28910795  6.32054514  6.32054514  6.92848836
  6.92848836  6.97294967  6.99322407  7.04026234  7.04026234  7.53927272
  7.53927272  7.71389694  7.71389694  8.34064709  8.55885024  8.86536665
  8.86536665  8.8761179   8.89343535  8.89343535  8.93213315  8.93213315
  9.24511075  9.24511075  9.39031032  9.39031032  9.75045641  9.75045641
  9.7947594  10.45642494 10.45642494 10.87241521 10.88426486 10.88426486
 11.0735067  11.09664962 11.09664962 11.81837694 11.81837694 11.84066219
 11.84066219 12.01490844 12.01490844 12.38191309 12.38191309 12.75641837
 12.75641837 12.94900014 12.94900014 13.05446114 13.05446114 13.37600642
 13.37600642 13.55782015 13.66258994 14.30333213 14.43449323 14.43449323
 15.91506551 15.91506551 16.589438   20.04132544 33.00886312 33.03279613]
E1 = -120.20262319971937  E_coul = 52.98108814647466
Extra cycle  E= -37.1131765008999  delta_E= -4.26e-14  |g|= 1.5e-07  |ddm|= 1.75e-06
    CPU time for scf_cycle    912.40 sec, wall time      7.45 sec
    CPU time for SCF    912.86 sec, wall time      7.45 sec
converged SCF energy = -37.1131765008999
