#INFO: **** input file is /home/nkousuke/lustre/toBeSync/turboRVB/05turbo-genius-development/turbogenius_paper/04data/sanity_checks/03pyscf_HF_turbo_VMC_via_trexio/00open_boundary/results/HOCl/pyscf-HF-workflow/run.py ****

from pyscf_wrapper import Pyscf_wrapper

# input variables
pyscf_chkfile="pyscf.chk"
structure_file="HOCl.xyz"

# input variables
omp_num_threads=128
charge=0
spin=0
basis="ccecp-ccpvqz"
ecp="ccecp"
scf_method="HF"
dft_xc="NA"
solver_newton=False
MP2_flag=False
CCSD_flag=False
pyscf_output="out.pyscf"
twist_average=False
exp_to_discard=0.0
kpt=[0.0, 0.0, 0.0]
kpt_grid=[1, 1, 1]
smearing_method="fermi"
smearing_sigma=0.0

pyscf_calc=Pyscf_wrapper(
                        structure_file=structure_file,
                        chkfile=pyscf_chkfile,
                        )

pyscf_calc.run_pyscf(
                  omp_num_threads=omp_num_threads,
                  charge=charge,
                  spin=spin,
                  basis=basis,
                  ecp=ecp,
                  scf_method=scf_method,
                  dft_xc=dft_xc,
                  solver_newton=solver_newton,
                  MP2_flag=MP2_flag,
                  CCSD_flag=CCSD_flag,
                  pyscf_output=pyscf_output,
                  twist_average=twist_average,
                  exp_to_discard=exp_to_discard,
                  kpt=kpt,
                  kpt_grid=kpt_grid,
                  smearing_method=smearing_method,
                  smearing_sigma=smearing_sigma
                  )
                #INFO: ******************** input file end ********************


System: uname_result(system='Linux', node='spcc-200', release='5.4.0-66-generic', version='#74-Ubuntu SMP Wed Jan 27 22:54:38 UTC 2021', machine='x86_64', processor='x86_64')  Threads 128
Python 3.7.3 (default, Mar 27 2019, 22:11:17) 
[GCC 7.3.0]
numpy 1.20.1  scipy 1.7.3
Date: Mon Dec 19 18:05:02 2022
PySCF version 2.0.1
PySCF path  /home/nkousuke/application/anaconda3/lib/python3.7/site-packages/pyscf

[CONFIG] conf_file /home/nkousuke/.pyscf_conf.py
[INPUT] verbose = 5
[INPUT] max_memory = 507433.47265625 
[INPUT] num. atoms = 3
[INPUT] num. electrons = 14
[INPUT] charge = 0
[INPUT] spin (= nelec alpha-beta = 2S) = 0
[INPUT] symmetry False subgroup None
[INPUT] Mole.unit = A
[INPUT]  1 O      0.036140000000   1.096000000000   0.000000000000 AA    0.068294702142   2.071139832523   0.000000000000 Bohr
[INPUT]  2 H     -0.903430000000   1.311190000000   0.000000000000 AA   -1.707235272716   2.477789997268   0.000000000000 Bohr
[INPUT]  3 Cl     0.036140000000  -0.592900000000   0.000000000000 AA    0.068294702142  -1.120418619255   0.000000000000 Bohr
[INPUT] ---------------- BASIS SET ---------------- 
[INPUT] l, kappa, [nprim/nctr], expnt,             c_1 c_2 ...
[INPUT] H
[INPUT] 0    0    [8    /1   ]  23.843185         0.0041149
                                10.212443         0.0104644
                                4.374164          0.0280111
                                1.873529          0.0758862
                                0.802465          0.1821062
                                0.343709          0.3485214
                                0.147217          0.3782313
                                0.063055          0.1164241
[INPUT] 0    0    [1    /1   ]  0.081856             1
[INPUT] 0    0    [1    /1   ]  0.233254             1
[INPUT] 0    0    [1    /1   ]  0.664673             1
[INPUT] 1    0    [1    /1   ]  0.284469             1
[INPUT] 1    0    [1    /1   ]  0.847159             1
[INPUT] 1    0    [1    /1   ]  2.522868             1
[INPUT] 2    0    [1    /1   ]  0.665279             1
[INPUT] 2    0    [1    /1   ]  2.048739             1
[INPUT] 3    0    [1    /1   ]  1.42146              1
[INPUT] Cl
[INPUT] 0    0    [10   /1   ]  15.583847         0.002501
                                8.858485          -0.010046
                                5.035519          0.08581
                                2.862391          -0.290136
                                1.627098          -0.140314
                                0.924908          0.146839
                                0.525755          0.392484
                                0.29886           0.425061
                                0.169884          0.227195
                                0.096569          0.059828
[INPUT] 0    0    [1    /1   ]  1.038268             1
[INPUT] 0    0    [1    /1   ]  0.418863             1
[INPUT] 0    0    [1    /1   ]  0.16898              1
[INPUT] 1    0    [10   /1   ]  7.682894          -0.004609
                                4.507558          -0.001798
                                2.644587          -0.068614
                                1.551581          0.062352
                                0.910313          0.166337
                                0.534081          0.282292
                                0.313346          0.275967
                                0.18384           0.241328
                                0.107859          0.110223
                                0.063281          0.040289
[INPUT] 1    0    [1    /1   ]  2.626653             1
[INPUT] 1    0    [1    /1   ]  1.069041             1
[INPUT] 1    0    [1    /1   ]  0.435097             1
[INPUT] 2    0    [1    /1   ]  2.102692             1
[INPUT] 2    0    [1    /1   ]  0.763188             1
[INPUT] 2    0    [1    /1   ]  0.277005             1
[INPUT] 3    0    [1    /1   ]  1.139446             1
[INPUT] 3    0    [1    /1   ]  0.434852             1
[INPUT] 4    0    [1    /1   ]  0.844301             1
[INPUT] O
[INPUT] 0    0    [9    /1   ]  54.775216         -0.0012444
                                25.616801         0.010733
                                11.980245         0.0018889
                                6.992317          -0.1742537
                                2.620277          0.0017622
                                1.225429          0.3161846
                                0.577797          0.4512023
                                0.268022          0.3121534
                                0.125346          0.0511167
[INPUT] 0    0    [1    /1   ]  1.351771             1
[INPUT] 0    0    [1    /1   ]  0.843157             1
[INPUT] 0    0    [1    /1   ]  0.22438              1
[INPUT] 1    0    [9    /1   ]  22.217266         0.0104866
                                10.74755          0.0366435
                                5.315785          0.0803674
                                2.660761          0.162701
                                1.331816          0.2377791
                                0.678626          0.2811422
                                0.333673          0.2643189
                                0.167017          0.1466014
                                0.083598          0.0458145
[INPUT] 1    0    [1    /1   ]  1.106737             1
[INPUT] 1    0    [1    /1   ]  0.452364             1
[INPUT] 1    0    [1    /1   ]  0.148562             1
[INPUT] 2    0    [1    /1   ]  4.008867             1
[INPUT] 2    0    [1    /1   ]  1.344331             1
[INPUT] 2    0    [1    /1   ]  0.455711             1
[INPUT] 3    0    [1    /1   ]  2.763115             1
[INPUT] 3    0    [1    /1   ]  0.876289             1
[INPUT] 4    0    [1    /1   ]  1.759081             1

nuclear repulsion = 18.1982769961874
number of shells = 38
number of NR pGTOs = 213
number of NR cGTOs = 138
basis = ccecp-ccpvqz
ecp = ccecp
CPU time:         7.62


******** <class 'pyscf.scf.hf.RHF'> ********
method = RHF
initial guess = minao
damping factor = 0
level_shift factor = 0
DIIS = <class 'pyscf.scf.diis.CDIIS'>
diis_start_cycle = 1
diis_space = 8
SCF conv_tol = 1e-09
SCF conv_tol_grad = None
SCF max_cycles = 200
direct_scf = True
direct_scf_tol = 1e-13
chkfile to save SCF result = pyscf.chk
max_memory 507433 MB (current use 106 MB)
Set gradient conv threshold to 3.16228e-05
E1 = -87.13666209684298  E_coul = 38.057406320165626
init E= -30.8809787804899
cond(S) = 17658.121058624478
    CPU time for initialize scf    162.97 sec, wall time      1.37 sec
  HOMO = -0.34837778324161  LUMO = -0.0915813845891886
  mo_energy =
[-1.6693465  -1.09384418 -0.72263701 -0.61702765 -0.56691863 -0.39199498
 -0.34837778 -0.09158138  0.10152634  0.35273801  0.38054415  0.39913562
  0.44309655  0.49812906  0.5009831   0.51168676  0.53218379  0.54263927
  0.60262344  0.64025914  0.65806946  0.69962364  0.86212776  0.90605742
  1.03887397  1.11302675  1.25870817  1.37196957  1.38424845  1.43472522
  1.45830096  1.53354887  1.55792763  1.56537246  1.66064907  1.66629384
  1.67262161  1.69984407  1.74168777  1.76532722  1.86607046  1.93104634
  1.98142542  2.02700586  2.21628401  2.26315764  2.32685153  2.46940188
  2.48524379  2.63810055  2.65775204  2.73189487  2.76474404  2.85790514
  2.95417635  3.00229077  3.12184119  3.3497135   3.42631856  3.46370735
  3.58904147  3.62534913  3.77268591  3.94480169  3.95741204  3.96119664
  3.97561691  4.0371399   4.1051126   4.12546658  4.26937392  4.28533647
  4.37134695  4.37915683  4.38910097  4.41212946  4.44046264  4.51575903
  4.53719992  4.53807412  4.54345059  4.71033516  4.79573146  4.8594241
  5.00262947  5.05912918  5.07598867  5.14562709  5.24070008  5.30062888
  5.33121909  5.75223504  6.16569651  6.24945069  6.555643    6.88960032
  6.9284133   6.95562797  7.16238711  7.35234583  7.72759872  7.85758947
  7.90812536  8.02743012  8.04422023  8.13928542  8.37249776  8.50610402
  8.8020299   8.97484523  9.05727658  9.15713242  9.29502872  9.30894348
  9.51037491 10.19743735 10.26628157 10.80013294 11.01927997 11.16076282
 11.34280391 11.38410824 11.55127419 11.90627527 11.93378833 12.06928239
 12.14345724 12.35103923 12.46179536 12.81324538 13.13308832 13.23138698
 14.02391219 14.58311389 14.6572229  16.62498039 17.69190615 32.81033538]
E1 = -87.69575112741653  E_coul = 38.506063025274024
cycle= 1 E= -30.9914111059551  delta_E= -0.11  |g|= 0.351  |ddm|= 2.99
    CPU time for cycle= 1     22.40 sec, wall time      0.23 sec
  HOMO = -0.444616729514327  LUMO = 0.0703822356793559
  mo_energy =
[-1.42713171 -1.0812608  -0.72000763 -0.60724433 -0.60014021 -0.47608817
 -0.44461673  0.07038224  0.13572984  0.39107218  0.39790834  0.41993511
  0.46798927  0.49237492  0.49461176  0.51807882  0.53232721  0.54539024
  0.60337569  0.64227337  0.67811581  0.68155233  0.86377685  0.90308021
  1.07546562  1.1109438   1.24957624  1.39159716  1.41270321  1.4533404
  1.48031987  1.54044337  1.56292621  1.57063444  1.65444415  1.67289426
  1.67656196  1.71069921  1.74483115  1.78122127  1.87067627  1.98372553
  1.98846821  2.06300312  2.21033255  2.24119795  2.32640234  2.43518259
  2.48711151  2.61392902  2.62989134  2.73601175  2.7659264   2.84309694
  2.92508853  2.99760989  3.11947027  3.35523926  3.44730445  3.4840172
  3.61391918  3.63943329  3.7709006   3.94884029  3.96602454  3.97904364
  3.9825361   4.02489191  4.16533599  4.21896858  4.29412378  4.31252969
  4.38722293  4.39512538  4.42615024  4.42777995  4.46656345  4.52762454
  4.53197432  4.59117633  4.60891675  4.72674831  4.85033568  4.87055001
  5.00846591  5.06108962  5.0725965   5.1724448   5.27316462  5.28761882
  5.33288171  5.78287791  6.10681479  6.18440754  6.54380498  6.90061636
  6.97781696  7.00283891  7.20072407  7.36826759  7.67418043  7.7947057
  7.89996458  7.96501993  8.03842739  8.04691942  8.30307004  8.5412897
  8.81955679  9.08180088  9.15421985  9.22825393  9.2928826   9.30354481
  9.54911269 10.27592401 10.34022219 10.93133605 11.14856836 11.25215055
 11.32826781 11.37202657 11.5773089  11.90957122 12.07476835 12.21928199
 12.29442923 12.49985084 12.61823634 12.93805506 13.3273941  13.41744474
 14.13192537 14.73487125 14.78792216 16.72906304 17.66161831 33.04453042]
E1 = -87.647828354436  E_coul = 38.43471485931361
cycle= 2 E= -31.014836498935  delta_E= -0.0234  |g|= 0.128  |ddm|= 0.56
    CPU time for cycle= 2     56.11 sec, wall time      0.44 sec
  HOMO = -0.441807152993027  LUMO = 0.0769402029588602
  mo_energy =
[-1.44185805 -1.06815922 -0.73516022 -0.62383761 -0.61040882 -0.46345515
 -0.44180715  0.0769402   0.14149731  0.38271555  0.39500854  0.42781763
  0.46302505  0.50886589  0.50981639  0.52780958  0.54701735  0.55767781
  0.61147888  0.65183382  0.68421667  0.69060719  0.87305594  0.91209731
  1.06794894  1.11405989  1.25542634  1.39449981  1.4097821   1.45632723
  1.4779431   1.54902426  1.58013306  1.58770797  1.67750321  1.68820428
  1.69414548  1.72521374  1.76210986  1.78708386  1.88056742  1.97080081
  1.99505784  2.05523383  2.223086    2.2561874   2.32983712  2.45183571
  2.48888646  2.62691567  2.6463968   2.73690566  2.78699071  2.85301724
  2.94755645  3.00361522  3.13525252  3.35914     3.45341945  3.48940489
  3.61608495  3.64544774  3.78581565  3.96672965  3.98844524  4.00156353
  4.00833491  4.05186398  4.1519661   4.19577769  4.30838315  4.31109082
  4.41291737  4.42001003  4.42937057  4.44671061  4.47756653  4.53936562
  4.5536365   4.58089493  4.58998168  4.73507085  4.83772725  4.87753713
  5.02881006  5.08929266  5.10875024  5.17628808  5.27520582  5.30383729
  5.34764975  5.779777    6.13626723  6.21234655  6.55929813  6.91655726
  6.96347615  6.97791666  7.18506857  7.36715357  7.69721066  7.81195647
  7.89819519  7.98002668  8.05641574  8.08057588  8.33204111  8.5337532
  8.81794346  9.05534614  9.13120431  9.21662357  9.30373739  9.30481876
  9.53389806 10.25441539 10.3214654  10.88603945 11.10921794 11.22183141
 11.36933756 11.40859824 11.57893922 11.94301681 12.01552935 12.16698824
 12.23799015 12.44102613 12.56549556 12.88639982 13.24913402 13.3433825
 14.0908488  14.67965802 14.73100517 16.69133588 17.70816576 32.93762829]
E1 = -87.79664286076138  E_coul = 38.58054106791003
cycle= 3 E= -31.0178247966639  delta_E= -0.00299  |g|= 0.0496  |ddm|= 0.187
    CPU time for cycle= 3     60.42 sec, wall time      0.49 sec
  HOMO = -0.44126271980593  LUMO = 0.081260834603598
  mo_energy =
[-1.42482439 -1.06752422 -0.72056014 -0.6107836  -0.60186388 -0.46585277
 -0.44126272  0.08126083  0.14568671  0.38582318  0.39836138  0.43352064
  0.46751563  0.50806429  0.50873054  0.52695291  0.54550273  0.55673136
  0.61065363  0.65082738  0.68552296  0.69316294  0.87472735  0.91360906
  1.07378575  1.12051988  1.26160435  1.39941289  1.414896    1.46122251
  1.48202783  1.55050657  1.57743772  1.58479293  1.67463963  1.68828231
  1.69128322  1.72223881  1.7597553   1.79025191  1.88215713  1.97827619
  1.99492026  2.0587084   2.22929943  2.26311064  2.33549747  2.45884835
  2.49836819  2.63386187  2.64958832  2.7425169   2.78409859  2.86115304
  2.94931059  3.00995592  3.13192157  3.37105098  3.46124032  3.49589963
  3.62243096  3.65351689  3.78937149  3.96537343  3.9846148   3.9972803
  4.00341652  4.05039746  4.16246386  4.21007383  4.31262467  4.31333122
  4.40881973  4.4173991   4.43810966  4.44574293  4.47928553  4.53874503
  4.55464257  4.58804729  4.59901898  4.73906474  4.85190214  4.88254535
  5.02368618  5.08396466  5.10142247  5.17981157  5.28364941  5.30416835
  5.34852966  5.79196972  6.14576159  6.22262949  6.56714715  6.93016536
  6.98836851  6.99402207  7.20330362  7.38625569  7.71082819  7.82559945
  7.91966323  7.99488394  8.07487307  8.09287091  8.34511119  8.55372593
  8.83616781  9.07607936  9.15182911  9.23601352  9.32078335  9.32259757
  9.5542771  10.27470431 10.34186622 10.91042152 11.13201334 11.24335866
 11.36108478 11.40270342 11.599808   11.93704825 12.04470285 12.19474283
 12.26674512 12.46935447 12.59520718 12.91572554 13.28321979 13.37691707
 14.12104251 14.70995916 14.76153411 16.72000106 17.698835   32.9824608 ]
E1 = -87.719735380643  E_coul = 38.50314628678908
cycle= 4 E= -31.0183120976665  delta_E= -0.000487  |g|= 0.013  |ddm|= 0.0649
    CPU time for cycle= 4     67.85 sec, wall time      0.53 sec
  HOMO = -0.442956444247077  LUMO = 0.0805654398459027
  mo_energy =
[-1.42924667 -1.06827772 -0.72356184 -0.61455621 -0.60482414 -0.46681355
 -0.44295644  0.08056544  0.14521593  0.38495548  0.39778147  0.43304616
  0.46584616  0.50745743  0.50823137  0.52632095  0.54538569  0.55661795
  0.61022564  0.65025676  0.68470934  0.69247745  0.87425827  0.91266103
  1.07227298  1.11937047  1.2603788   1.39767111  1.41321815  1.45950594
  1.48105679  1.54964432  1.57700788  1.58436474  1.67384707  1.68764321
  1.69061168  1.72166446  1.75894388  1.78895125  1.88118664  1.97625847
  1.99494086  2.05804923  2.22797903  2.26186336  2.33393778  2.45837429
  2.49560149  2.63318533  2.64954297  2.74071554  2.78340885  2.85975406
  2.94801262  3.00883178  3.13246283  3.36898496  3.4583568   3.49356881
  3.62033338  3.65083615  3.78690108  3.9643657   3.98400112  3.99697884
  4.00303826  4.04868054  4.15986404  4.20670904  4.31094845  4.31141933
  4.40831216  4.4166147   4.43541081  4.44437005  4.477944    4.5380938
  4.5527662   4.58611109  4.59651768  4.73726897  4.84914579  4.88137014
  5.02383377  5.08373944  5.10113233  5.17855288  5.28177673  5.30295155
  5.34677046  5.78996279  6.14454744  6.22187057  6.56469627  6.92865484
  6.98351065  6.99182274  7.20081069  7.38354573  7.7100716   7.82502113
  7.91693543  7.99391888  8.07301457  8.09322008  8.34498565  8.55066386
  8.83379362  9.07157127  9.14736329  9.23251037  9.31890019  9.32065704
  9.55065159 10.27086677 10.33795706 10.90592343 11.12771379 11.23934843
 11.36060526 11.40206285 11.59690051 11.93641099 12.03866294 12.18900711
 12.26076727 12.46347434 12.58897151 12.90959063 13.27617792 13.37000446
 14.11534426 14.70409168 14.75560353 16.71507665 17.69815406 32.97308358]
E1 = -87.74212621908161  E_coul = 38.525471239207846
cycle= 5 E= -31.0183779836863  delta_E= -6.59e-05  |g|= 0.00305  |ddm|= 0.0225
    CPU time for cycle= 5     79.48 sec, wall time      0.62 sec
  HOMO = -0.442754772669438  LUMO = 0.0807749768379149
  mo_energy =
[-1.42840443 -1.0680453  -0.72273876 -0.61387145 -0.6044657  -0.46670853
 -0.44275477  0.08077498  0.1454558   0.38522518  0.39793038  0.43319554
  0.46612208  0.50762842  0.50839934  0.52634201  0.54555334  0.55665777
  0.61032229  0.65026813  0.68491607  0.69261547  0.87432663  0.91272729
  1.0726596   1.11956339  1.26055618  1.39796454  1.41354353  1.45984585
  1.48124075  1.54976686  1.57713702  1.58450521  1.67404329  1.68785346
  1.69085824  1.72186717  1.75916343  1.78922197  1.8813762   1.976629
  1.99483754  2.05823201  2.22816994  2.26205052  2.33422893  2.45847227
  2.49616223  2.63338089  2.6496158   2.74117561  2.78365226  2.85997699
  2.94831113  3.00902657  3.1323279   3.36935789  3.45897199  3.49404265
  3.62078384  3.65142812  3.78729934  3.96461279  3.98420316  3.99726434
  4.00330616  4.04907469  4.16033756  4.20743984  4.31146414  4.3115603
  4.40869251  4.41702425  4.43600896  4.4447678   4.47831953  4.53815281
  4.55318137  4.58653796  4.5970674   4.73762448  4.84964228  4.88156037
  5.0238404   5.08400337  5.10149896  5.17888877  5.28209136  5.30316564
  5.34705851  5.79041142  6.14473699  6.22197564  6.56525612  6.92888246
  6.98435908  6.99224082  7.20136529  7.38403151  7.71024115  7.82525766
  7.91732395  7.9941883   8.07319002  8.09318693  8.34506533  8.55119549
  8.83424206  9.07266081  9.1483838   9.23329117  9.31936745  9.32106075
  9.55148702 10.27159599 10.33871788 10.9068492  11.12854738 11.24022939
 11.36101243 11.402462   11.5973099  11.93653077 12.03989989 12.19024736
 12.26195899 12.46446069 12.58990932 12.91071376 13.27748373 13.37130239
 14.11614    14.70503544 14.75661642 16.71576778 17.69856688 32.97465631]
E1 = -87.73822871290618  E_coul = 38.5215689167589
cycle= 6 E= -31.0183827999599  delta_E= -4.82e-06  |g|= 0.000939  |ddm|= 0.00587
    CPU time for cycle= 6     75.18 sec, wall time      0.59 sec
  HOMO = -0.442913462476794  LUMO = 0.0807161028216234
  mo_energy =
[-1.42839359 -1.06822588 -0.7226396  -0.61387448 -0.60467408 -0.46693588
 -0.44291346  0.0807161   0.14540874  0.38520536  0.39792738  0.43322287
  0.46614964  0.50747592  0.50828129  0.52620941  0.54539955  0.55654297
  0.61022848  0.65015248  0.68481203  0.69261691  0.87426697  0.91263359
  1.0726568   1.11960214  1.26059368  1.39790964  1.41345729  1.45977922
  1.48117131  1.54963376  1.57697594  1.58433741  1.67380807  1.68770255
  1.69063382  1.72166259  1.7589356   1.78909648  1.88126827  1.97660916
  1.99473451  2.05818455  2.22819836  2.26206595  2.33421453  2.45856697
  2.49611502  2.6334038   2.64961863  2.74109529  2.78342633  2.86004935
  2.9481983   3.00901413  3.13214157  3.36941755  3.45887203  3.49393417
  3.62066471  3.65131993  3.78706857  3.9643686   3.98393759  3.99703076
  4.00307703  4.04883803  4.1602855   4.2073837   4.31124959  4.31145296
  4.40841316  4.41675572  4.43586202  4.4445075   4.4781172   4.53794348
  4.55292663  4.58644088  4.59699408  4.73742024  4.84968457  4.88145576
  5.02357467  5.08370919  5.10116487  5.17874821  5.28202861  5.30293994
  5.3468336   5.79041521  6.14479915  6.2221029   6.56510506  6.92901537
  6.984436    6.99234185  7.20142923  7.38411001  7.71039335  7.82540461
  7.91747318  7.99432638  8.07332327  8.09335082  8.3452103   8.55130214
  8.83434165  9.07276816  9.14847858  9.23333648  9.31946602  9.32117433
  9.55154278 10.27167182 10.338786   10.90680013 11.12852142 11.24022076
 11.36061319 11.40210118 11.59741282 11.9361368  12.03998365 12.19035077
 12.2620295  12.46449996 12.58995134 12.91084112 13.27760944 13.3714144
 14.11623349 14.70506019 14.75670673 16.71580848 17.69811817 32.97474793]
E1 = -87.73858601714366  E_coul = 38.521925503343375
cycle= 7 E= -31.0183835176129  delta_E= -7.18e-07  |g|= 0.000324  |ddm|= 0.00342
    CPU time for cycle= 7     69.42 sec, wall time      0.55 sec
  HOMO = -0.442892545980913  LUMO = 0.0807347669587474
  mo_energy =
[-1.4283142  -1.06821562 -0.72253043 -0.61379369 -0.60468637 -0.46694601
 -0.44289255  0.08073477  0.14542219  0.3852345   0.39795155  0.43325741
  0.46619615  0.50747452  0.50829068  0.52621455  0.54539269  0.55654136
  0.61022396  0.65014809  0.68482363  0.69264178  0.87428583  0.91264435
  1.07269574  1.11964104  1.26063724  1.39793928  1.41348643  1.45981289
  1.48119865  1.54965022  1.5769637   1.58432439  1.67381001  1.68770807
  1.69063267  1.72166656  1.75894084  1.78912516  1.88129206  1.97665856
  1.99474051  2.05821389  2.22824122  2.26210712  2.33425345  2.45861644
  2.49616348  2.63345176  2.64965399  2.74114525  2.78343268  2.86010178
  2.94821513  3.0090646   3.1321462   3.36948248  3.45892114  3.49397876
  3.62070767  3.65137297  3.78709356  3.96437463  3.98392871  3.99702431
  4.00306984  4.04884331  4.16034383  4.20745163  4.31127188  4.31148628
  4.40842123  4.41676789  4.43590942  4.44452532  4.47814688  4.5379643
  4.55295003  4.58648765  4.59704754  4.73745474  4.84975386  4.88149966
  5.02357723  5.08372069  5.10117973  5.17879178  5.28208517  5.302968
  5.34686238  5.79048476  6.14485732  6.22216651  6.56516131  6.92908711
  6.9845266   6.99242074  7.20151048  7.38419482  7.71046235  7.82547546
  7.91755457  7.9944032   8.07339001  8.09341599  8.3452774   8.5513897
  8.83442453  9.0728762   9.14858066  9.23342724  9.31955031  9.32125699
  9.55164675 10.27176667 10.33887978 10.90688735 11.12859693 11.24032425
 11.36063687 11.40213157 11.59749183 11.93615193 12.04010283 12.19047247
 12.26214736 12.46461074 12.59003569 12.91097991 13.27774008 13.37154073
 14.11633355 14.70514575 14.75683299 16.71589609 17.6981414  32.97488605]
E1 = -87.7384651038845  E_coul = 38.52180448717212
cycle= 8 E= -31.018383620525  delta_E= -1.03e-07  |g|= 8.82e-05  |ddm|= 0.00151
    CPU time for cycle= 8     37.83 sec, wall time      0.30 sec
  HOMO = -0.442898617061989  LUMO = 0.0807352092356925
  mo_energy =
[-1.42830619 -1.06822571 -0.72251718 -0.61378367 -0.60470171 -0.46695971
 -0.44289862  0.08073521  0.14542263  0.38523182  0.39795591  0.43326482
  0.46620643  0.50746712  0.50828499  0.52620845  0.54538009  0.55653263
  0.61022132  0.6501424   0.6848201   0.69264915  0.87428568  0.91264182
  1.07269996  1.11965055  1.26064595  1.39794179  1.41348402  1.45981487
  1.48119738  1.54964307  1.57695469  1.58431456  1.67379778  1.68769822
  1.69061893  1.72165389  1.75892738  1.78912006  1.88128941  1.97666343
  1.9947339   2.05821501  2.22825377  2.26211873  2.33426095  2.45863381
  2.49617071  2.63345967  2.64965975  2.74114464  2.78341921  2.86011677
  2.94822151  3.00906843  3.13213183  3.36949609  3.45892199  3.49397809
  3.62070449  3.65137237  3.78708368  3.96435891  3.98391086  3.99700837
  4.00305805  4.04883889  4.16034475  4.20745294  4.31126573  4.31148393
  4.40840305  4.41675081  4.43590385  4.44451044  4.47813672  4.53794967
  4.55293686  4.58648704  4.59704973  4.73744354  4.84976474  4.88149362
  5.02355841  5.08370118  5.10115785  5.17878872  5.28208508  5.30295759
  5.34685291  5.79049583  6.14487653  6.22219138  6.56515799  6.9291099
  6.98453792  6.99243969  7.201526    7.38421033  7.7104858   7.8254985
  7.91757485  7.99442581  8.07341168  8.09344383  8.34530233  8.55140862
  8.83444269  9.07289326  9.14859648  9.23343826  9.3195686   9.32127606
  9.55165803 10.27178199 10.3388936  10.9068914  11.12860207 11.2403339
 11.36061017 11.40210808 11.59750785 11.93612496 12.0401152  12.19048586
 12.26215572 12.46461879 12.59004178 12.91099669 13.27775374 13.37155273
 14.11634549 14.70515111 14.7568469  16.71590579 17.6981116  32.97489024]
E1 = -87.7385130734671  E_coul = 38.521852449667946
cycle= 9 E= -31.0183836276117  delta_E= -7.09e-09  |g|= 2.87e-05  |ddm|= 0.0004
    CPU time for cycle= 9     40.92 sec, wall time      0.32 sec
  HOMO = -0.442896855722747  LUMO = 0.0807350454938178
  mo_energy =
[-1.42830822 -1.06822412 -0.72251858 -0.61378326 -0.60470528 -0.46695851
 -0.44289686  0.08073505  0.14542209  0.38523248  0.39795562  0.43326361
  0.46620704  0.50746798  0.50828561  0.52620926  0.54538112  0.55653347
  0.61022139  0.65014291  0.68482044  0.69264833  0.87428546  0.91264156
  1.07269926  1.11964899  1.26064463  1.39794213  1.41348314  1.45981514
  1.48119648  1.5496431   1.57695632  1.58431617  1.67379997  1.68769821
  1.69062037  1.72165505  1.7589283   1.78912017  1.8812898   1.97666387
  1.994735    2.05821541  2.22825249  2.26211671  2.33425999  2.4586313
  2.49616875  2.6334581   2.64965855  2.74114406  2.78342081  2.86011503
  2.94821997  3.00906771  3.13213433  3.36949397  3.45892212  3.4939776
  3.6207039   3.65137156  3.78708369  3.96435964  3.98391165  3.99700994
  4.0030613   4.04884041  4.1603441   4.20745111  4.31126592  4.31148485
  4.40840426  4.4167524   4.43590308  4.44451211  4.47813861  4.53795296
  4.55293787  4.58648616  4.59704891  4.73744384  4.84976263  4.88149502
  5.02356145  5.08370267  5.10116097  5.17878932  5.28208583  5.30295814
  5.346854    5.79049441  6.14487332  6.22218765  6.5651567   6.92910651
  6.98453428  6.99243645  7.20152201  7.38420637  7.71048163  7.82549381
  7.91757036  7.99442119  8.07340804  8.09343888  8.34529758  8.5514053
  8.83443907  9.07289195  9.14859486  9.23343516  9.31956468  9.32127219
  9.55165478 10.27177932 10.33889092 10.90688621 11.12859771 11.24033095
 11.36061371 11.40211086 11.59750484 11.93612786 12.04011233 12.19048373
 12.26215183 12.46461455 12.59003795 12.91099441 13.27774992 13.3715489
 14.11634174 14.70514582 14.75684275 16.71590094 17.69811501 32.97488406]
E1 = -87.738528150138  E_coul = 38.52186752528123
cycle= 10 E= -31.0183836286693  delta_E= -1.06e-09  |g|= 1.2e-05  |ddm|= 0.000144
    CPU time for cycle= 10     44.45 sec, wall time      0.35 sec
  HOMO = -0.442897092907263  LUMO = 0.0807347638046737
  mo_energy =
[-1.42830832 -1.06822459 -0.7225186  -0.61378327 -0.60470676 -0.46695868
 -0.44289709  0.08073476  0.14542225  0.38523189  0.39795544  0.43326327
  0.46620706  0.50746763  0.50828538  0.52620876  0.54538088  0.55653296
  0.61022156  0.65014257  0.68482024  0.69264816  0.87428504  0.91264127
  1.07269894  1.11964871  1.26064408  1.39794225  1.41348215  1.45981525
  1.48119578  1.54964231  1.57695638  1.58431616  1.67380006  1.68769723
  1.69061999  1.72165426  1.75892751  1.78911958  1.88128938  1.97666384
  1.9947346   2.05821537  2.22825225  2.26211628  2.33425968  2.45863051
  2.49616861  2.6334572   2.6496577   2.7411432   2.78342017  2.86011447
  2.94822043  3.00906662  3.13213366  3.36949347  3.45892214  3.49397704
  3.62070291  3.65137089  3.78708311  3.96435839  3.98391039  3.997009
  4.00306169  4.04884144  4.16034344  4.20745024  4.31126577  4.31148477
  4.40840293  4.41675136  4.43590228  4.44451161  4.47813839  4.53795246
  4.55293745  4.58648565  4.59704868  4.73744305  4.84976196  4.88149421
  5.02356084  5.08370132  5.10116001  5.17878894  5.2820856   5.30295729
  5.34685349  5.79049424  6.14487256  6.22218674  6.56515577  6.92910569
  6.98453404  6.99243584  7.20152139  7.38420538  7.71048058  7.82549261
  7.91756961  7.99442007  8.07340719  8.09343742  8.34529627  8.55140484
  8.83443823  9.07289245  9.14859521  9.23343424  9.31956353  9.32127106
  9.55165375 10.27177891 10.33889049 10.90688523 11.12859691 11.24033052
 11.36061258 11.40210966 11.59750415 11.93612693 12.04011278 12.1904844
 12.26215137 12.46461385 12.59003783 12.91099476 13.27775042 13.37154934
 14.11634154 14.70514536 14.75684258 16.71590033 17.6981138  32.97488452]
E1 = -87.73852752479993  E_coul = 38.521866899731606
cycle= 11 E= -31.0183836288809  delta_E= -2.12e-10  |g|= 2.74e-06  |ddm|= 7.75e-05
    CPU time for cycle= 11     36.82 sec, wall time      0.29 sec
  HOMO = -0.442897242521129  LUMO = 0.0807347250418775
  mo_energy =
[-1.428308   -1.06822474 -0.72251822 -0.6137832  -0.60470666 -0.4669588
 -0.44289724  0.08073473  0.14542231  0.38523193  0.39795546  0.43326343
  0.46620706  0.50746751  0.50828532  0.52620869  0.54538076  0.55653289
  0.61022151  0.6501425   0.68482021  0.69264823  0.87428508  0.91264125
  1.07269904  1.11964888  1.26064426  1.39794234  1.41348218  1.45981535
  1.48119576  1.54964228  1.57695628  1.58431604  1.67379994  1.68769709
  1.69061983  1.72165403  1.75892732  1.78911962  1.88128938  1.97666385
  1.99473452  2.05821533  2.22825239  2.26211649  2.33425976  2.45863075
  2.49616879  2.6334574   2.6496578   2.74114328  2.78341995  2.8601147
  2.94822041  3.00906678  3.13213341  3.36949376  3.45892224  3.49397712
  3.62070297  3.65137102  3.78708311  3.96435823  3.98391011  3.9970087
  4.00306149  4.04884142  4.16034361  4.20745042  4.31126577  4.31148466
  4.40840255  4.41675104  4.43590238  4.44451145  4.47813831  4.53795236
  4.55293744  4.5864856   4.59704864  4.73744304  4.84976225  4.88149427
  5.02356047  5.08370088  5.10115959  5.17878889  5.28208568  5.30295722
  5.3468534   5.79049451  6.14487291  6.22218713  6.56515592  6.92910611
  6.98453445  6.99243624  7.20152181  7.38420584  7.71048105  7.82549304
  7.91757017  7.99442053  8.07340775  8.09343795  8.34529676  8.5514053
  8.8344387   9.07289278  9.14859557  9.23343459  9.31956399  9.32127154
  9.55165412 10.2717793  10.33889089 10.9068856  11.12859728 11.24033085
 11.3606121  11.40210927 11.59750467 11.93612656 12.04011322 12.19048483
 12.26215173 12.46461422 12.59003834 12.91099518 13.27775089 13.37154981
 14.1163421  14.70514588 14.75684305 16.71590088 17.69811332 32.97488513]
E1 = -87.73852638200421  E_coul = 38.52186575692919
Extra cycle  E= -31.0183836288876  delta_E= -6.69e-12  |g|= 1.57e-06  |ddm|= 8.12e-06
    CPU time for scf_cycle    790.24 sec, wall time      6.35 sec
    CPU time for SCF    790.25 sec, wall time      6.35 sec
converged SCF energy = -31.0183836288876
