#INFO: **** input file is /home/nkousuke/lustre/toBeSync/turboRVB/05turbo-genius-development/turbogenius_paper/04data/sanity_checks/03pyscf_HF_turbo_VMC_via_trexio/00open_boundary/results/CH4/pyscf-HF-workflow/run.py ****

from pyscf_wrapper import Pyscf_wrapper

# input variables
pyscf_chkfile="pyscf.chk"
structure_file="CH4.xyz"

# input variables
omp_num_threads=128
charge=0
spin=0
basis="ccecp-ccpvqz"
ecp="ccecp"
scf_method="HF"
dft_xc="NA"
solver_newton=False
MP2_flag=False
CCSD_flag=False
pyscf_output="out.pyscf"
twist_average=False
exp_to_discard=0.0
kpt=[0.0, 0.0, 0.0]
kpt_grid=[1, 1, 1]
smearing_method="fermi"
smearing_sigma=0.0

pyscf_calc=Pyscf_wrapper(
                        structure_file=structure_file,
                        chkfile=pyscf_chkfile,
                        )

pyscf_calc.run_pyscf(
                  omp_num_threads=omp_num_threads,
                  charge=charge,
                  spin=spin,
                  basis=basis,
                  ecp=ecp,
                  scf_method=scf_method,
                  dft_xc=dft_xc,
                  solver_newton=solver_newton,
                  MP2_flag=MP2_flag,
                  CCSD_flag=CCSD_flag,
                  pyscf_output=pyscf_output,
                  twist_average=twist_average,
                  exp_to_discard=exp_to_discard,
                  kpt=kpt,
                  kpt_grid=kpt_grid,
                  smearing_method=smearing_method,
                  smearing_sigma=smearing_sigma
                  )
                #INFO: ******************** input file end ********************


System: uname_result(system='Linux', node='spcc-200', release='5.4.0-66-generic', version='#74-Ubuntu SMP Wed Jan 27 22:54:38 UTC 2021', machine='x86_64', processor='x86_64')  Threads 128
Python 3.7.3 (default, Mar 27 2019, 22:11:17) 
[GCC 7.3.0]
numpy 1.20.1  scipy 1.7.3
Date: Mon Dec 19 18:04:27 2022
PySCF version 2.0.1
PySCF path  /home/nkousuke/application/anaconda3/lib/python3.7/site-packages/pyscf

[CONFIG] conf_file /home/nkousuke/.pyscf_conf.py
[INPUT] verbose = 5
[INPUT] max_memory = 507499.62890625 
[INPUT] num. atoms = 5
[INPUT] num. electrons = 8
[INPUT] charge = 0
[INPUT] spin (= nelec alpha-beta = 2S) = 0
[INPUT] symmetry False subgroup None
[INPUT] Mole.unit = A
[INPUT]  1 C      0.000000000000   0.000000000000   0.000000000000 AA    0.000000000000   0.000000000000   0.000000000000 Bohr
[INPUT]  2 H      0.627060000000   0.627060000000   0.627060000000 AA    1.184971663670   1.184971663670   1.184971663670 Bohr
[INPUT]  3 H     -0.627060000000  -0.627060000000   0.627060000000 AA   -1.184971663670  -1.184971663670   1.184971663670 Bohr
[INPUT]  4 H      0.627060000000  -0.627060000000  -0.627060000000 AA    1.184971663670  -1.184971663670  -1.184971663670 Bohr
[INPUT]  5 H     -0.627060000000   0.627060000000  -0.627060000000 AA   -1.184971663670   1.184971663670  -1.184971663670 Bohr
[INPUT] ---------------- BASIS SET ---------------- 
[INPUT] l, kappa, [nprim/nctr], expnt,             c_1 c_2 ...
[INPUT] H
[INPUT] 0    0    [8    /1   ]  23.843185         0.0041149
                                10.212443         0.0104644
                                4.374164          0.0280111
                                1.873529          0.0758862
                                0.802465          0.1821062
                                0.343709          0.3485214
                                0.147217          0.3782313
                                0.063055          0.1164241
[INPUT] 0    0    [1    /1   ]  0.081856             1
[INPUT] 0    0    [1    /1   ]  0.233254             1
[INPUT] 0    0    [1    /1   ]  0.664673             1
[INPUT] 1    0    [1    /1   ]  0.284469             1
[INPUT] 1    0    [1    /1   ]  0.847159             1
[INPUT] 1    0    [1    /1   ]  2.522868             1
[INPUT] 2    0    [1    /1   ]  0.665279             1
[INPUT] 2    0    [1    /1   ]  2.048739             1
[INPUT] 3    0    [1    /1   ]  1.42146              1
[INPUT] C
[INPUT] 0    0    [9    /1   ]  13.073594         0.0051583
                                6.541187          0.0603424
                                4.573411          -0.1978471
                                1.637494          -0.081034
                                0.819297          0.2321726
                                0.409924          0.2914643
                                0.2313            0.4336405
                                0.102619          0.213194
                                0.051344          0.0049848
[INPUT] 0    0    [1    /1   ]  0.846879             1
[INPUT] 0    0    [1    /1   ]  0.269659             1
[INPUT] 0    0    [1    /1   ]  0.109576             1
[INPUT] 1    0    [9    /1   ]  9.934169          0.0209076
                                3.886955          0.0572698
                                1.871016          0.1122682
                                0.935757          0.2130082
                                0.468003          0.2835815
                                0.239473          0.3011207
                                0.117063          0.2016934
                                0.058547          0.0453575
                                0.029281          0.0029775
[INPUT] 1    0    [1    /1   ]  0.804681             1
[INPUT] 1    0    [1    /1   ]  0.313254             1
[INPUT] 1    0    [1    /1   ]  0.105389             1
[INPUT] 2    0    [1    /1   ]  2.01376              1
[INPUT] 2    0    [1    /1   ]  0.684884             1
[INPUT] 2    0    [1    /1   ]  0.240171             1
[INPUT] 3    0    [1    /1   ]  0.457302             1
[INPUT] 3    0    [1    /1   ]  1.32493              1
[INPUT] 4    0    [1    /1   ]  1.03418              1

nuclear repulsion = 9.58581964349757
number of shells = 54
number of NR pGTOs = 234
number of NR cGTOs = 174
basis = ccecp-ccpvqz
ecp = ccecp
CPU time:         6.84


******** <class 'pyscf.scf.hf.RHF'> ********
method = RHF
initial guess = minao
damping factor = 0
level_shift factor = 0
DIIS = <class 'pyscf.scf.diis.CDIIS'>
diis_start_cycle = 1
diis_space = 8
SCF conv_tol = 1e-09
SCF conv_tol_grad = None
SCF max_cycles = 200
direct_scf = True
direct_scf_tol = 1e-13
chkfile to save SCF result = pyscf.chk
max_memory 507499 MB (current use 106 MB)
Set gradient conv threshold to 3.16228e-05
E1 = -28.48917864675914  E_coul = 11.451170989836154
init E= -7.45218801342542
cond(S) = 77071.77188646012
    CPU time for initialize scf    177.93 sec, wall time      1.87 sec
  HOMO = -0.505195905300441  LUMO = 0.0728014701738186
  mo_energy =
[-1.29281529 -0.50519591 -0.50519591 -0.50519591  0.07280147  0.16049524
  0.16049524  0.16049524  0.25468242  0.25468242  0.25468242  0.40556202
  0.45005739  0.45005739  0.45005739  0.48796408  0.48796408  0.55810315
  0.78759689  0.78759689  0.78759689  0.80592455  0.80592455  0.80592455
  0.90220936  0.90220936  0.90220936  1.1117038   1.1117038   1.1117038
  1.12533993  1.13904145  1.13904145  1.31049717  1.31049717  1.31049717
  1.36275573  1.89396845  1.89396845  1.89396845  1.96386524  1.96386524
  1.96386524  1.97771094  1.97771094  2.06437923  2.06437923  2.06437923
  2.1096425   2.31906502  2.31906502  2.31906502  2.45509615  2.45509615
  2.52515303  2.52515303  2.52515303  2.61911448  2.61911448  2.61911448
  2.62091864  2.62091864  2.71470327  3.07288455  3.07288455  3.07288455
  3.116556    3.116556    3.116556    3.27814841  3.37722399  3.37722399
  3.37722399  3.37875532  3.37875532  3.37875532  3.46378679  3.46378679
  3.46378679  3.90538081  4.07722486  4.07722486  4.07722486  4.11820938
  4.11820938  5.44453516  5.44453516  5.44453516  5.54663583  5.54663583
  5.54663583  5.5634083   5.5634083   5.86007647  6.08130505  6.08130505
  6.08130505  6.22397612  6.22397612  6.22397612  6.23580128  6.32631698
  6.32631698  6.32631698  6.40442082  6.40442082  6.40442082  6.42359186
  6.60171389  6.60171389  6.60171389  6.96154755  6.96154755  6.96154755
  6.9875963   7.26844173  7.26844173  7.61483668  7.61483668  7.61483668
  7.65606962  7.65606962  7.65606962  7.68534114  7.68534114  7.71686363
  7.96776452  7.96776452  7.96776452  8.02228975  8.02228975  8.0409188
  8.0409188   8.0409188   8.14868435  8.14868435  8.14868435  8.42063913
  8.57460481  8.57460481  8.67189842  8.67189842  8.67189842  8.70089696
  8.70089696  8.70089696  8.72631962  8.72631962  8.72631962  9.42874145
  9.42874145  9.42874145  9.46993991  9.46993991  9.46993991  9.77138389
  9.77138389 10.19329742 10.38987382 10.38987382 10.42817486 10.42817486
 10.42817486 10.5478106  10.5478106  10.5478106  10.81553563 10.81553563
 10.81553563 10.84400762 12.7819375  12.7819375  12.7819375  20.94199197]
E1 = -29.761080088453404  E_coul = 12.337983780144862
cycle= 1 E= -7.83727666481098  delta_E= -0.385  |g|= 0.189  |ddm|= 3.62
    CPU time for cycle= 1     37.09 sec, wall time      0.39 sec
  HOMO = -0.534598940472356  LUMO = 0.107413123753234
  mo_energy =
[-0.94301007 -0.53459894 -0.53459894 -0.53459894  0.10741312  0.18266471
  0.18266471  0.18266471  0.28038855  0.28038855  0.28038855  0.46861823
  0.52787856  0.52787856  0.53391276  0.53391276  0.53391276  0.60204869
  0.80988883  0.80988883  0.80988883  0.8449566   0.8449566   0.8449566
  0.93700188  0.93700188  0.93700188  1.13712482  1.13712482  1.13712482
  1.17313175  1.17313175  1.18085438  1.38591256  1.38591256  1.38591256
  1.4289603   1.95845892  1.95845892  1.95845892  2.05611233  2.05611233
  2.05611233  2.07053316  2.07053316  2.14899442  2.14899442  2.14899442
  2.19511096  2.36447545  2.36447545  2.36447545  2.51064887  2.51064887
  2.58674365  2.58674365  2.58674365  2.65498574  2.65498574  2.65498574
  2.65876571  2.65876571  2.77964648  3.11622647  3.11622647  3.11622647
  3.16523509  3.16523509  3.16523509  3.35168437  3.44516779  3.44516779
  3.44516779  3.45412198  3.45412198  3.45412198  3.54252721  3.54252721
  3.54252721  4.00361487  4.18841716  4.18841716  4.18841716  4.21478588
  4.21478588  5.58772832  5.58772832  5.58772832  5.69995204  5.69995204
  5.7037948   5.7037948   5.7037948   6.00700586  6.20385165  6.20385165
  6.20385165  6.30407796  6.31661142  6.31661142  6.31661142  6.41318591
  6.41318591  6.41318591  6.5142152   6.52759179  6.52759179  6.52759179
  6.72894337  6.72894337  6.72894337  7.10010917  7.10010917  7.10010917
  7.10430576  7.40374698  7.40374698  7.70400748  7.70400748  7.70400748
  7.74539798  7.74539798  7.74539798  7.77876288  7.77876288  7.79606713
  8.0358062   8.0358062   8.0358062   8.09805186  8.09805186  8.09805186
  8.10881104  8.10881104  8.21389438  8.21389438  8.21389438  8.53655572
  8.66751899  8.66751899  8.75775579  8.75775579  8.75775579  8.77717703
  8.77717703  8.77717703  8.85461139  8.85461139  8.85461139  9.51887208
  9.51887208  9.51887208  9.57709082  9.57709082  9.57709082  9.88796739
  9.88796739 10.29853367 10.48566559 10.48566559 10.55249661 10.55249661
 10.55249661 10.6832905  10.6832905  10.6832905  10.95724758 10.95724758
 10.95724758 10.9860638  12.93253752 12.93253752 12.93253752 21.20537715]
E1 = -29.631984069956097  E_coul = 12.199935107870242
cycle= 2 E= -7.84622931858829  delta_E= -0.00895  |g|= 0.0491  |ddm|= 0.328
    CPU time for cycle= 2     75.88 sec, wall time      0.62 sec
  HOMO = -0.552892265315281  LUMO = 0.106600228998979
  mo_energy =
[-0.95985282 -0.55289227 -0.55289227 -0.55289227  0.10660023  0.18148615
  0.18148615  0.18148615  0.27829481  0.27829481  0.27829481  0.46437482
  0.5243708   0.5243708   0.52607172  0.52607172  0.52607172  0.60089153
  0.80951142  0.80951142  0.80951142  0.83944992  0.83944992  0.83944992
  0.93310665  0.93310665  0.93310665  1.1344206   1.1344206   1.1344206
  1.16937533  1.16937533  1.17475842  1.3777963   1.3777963   1.3777963
  1.42602069  1.95110426  1.95110426  1.95110426  2.04039367  2.04039367
  2.04039367  2.05735387  2.05735387  2.13638555  2.13638555  2.13638555
  2.18045767  2.36378006  2.36378006  2.36378006  2.50584861  2.50584861
  2.58149233  2.58149233  2.58149233  2.656052    2.656052    2.656052
  2.65926954  2.65926954  2.77316014  3.11463942  3.11463942  3.11463942
  3.16130728  3.16130728  3.16130728  3.34558487  3.43992603  3.43992603
  3.43992603  3.44409553  3.44409553  3.44409553  3.53541842  3.53541842
  3.53541842  3.99102311  4.17052075  4.17052075  4.17052075  4.20171736
  4.20171736  5.56298411  5.56298411  5.56298411  5.67362042  5.67362042
  5.67362042  5.67974588  5.67974588  5.97895219  6.18826117  6.18826117
  6.18826117  6.30359948  6.30800095  6.30800095  6.30800095  6.41010632
  6.41010632  6.41010632  6.50967597  6.51115521  6.51115521  6.51115521
  6.70882374  6.70882374  6.70882374  7.08062276  7.08062276  7.08062276
  7.09064029  7.38317206  7.38317206  7.69683077  7.69683077  7.69683077
  7.74193897  7.74193897  7.74193897  7.77265547  7.77265547  7.79393306
  8.03620675  8.03620675  8.03620675  8.09690719  8.09690719  8.10225018
  8.10225018  8.10225018  8.21495163  8.21495163  8.21495163  8.52497997
  8.66805866  8.66805866  8.75948551  8.75948551  8.75948551  8.77830649
  8.77830649  8.77830649  8.83476446  8.83476446  8.83476446  9.51945505
  9.51945505  9.51945505  9.56991917  9.56991917  9.56991917  9.87800376
  9.87800376 10.29332689 10.48198027 10.48198027 10.5395026  10.5395026
 10.5395026  10.66976241 10.66976241 10.66976241 10.9394816  10.9394816
 10.9394816  10.97471096 12.91327268 12.91327268 12.91327268 21.13720273]
E1 = -29.709480110880147  E_coul = 12.276651990070135
cycle= 3 E= -7.84700847731244  delta_E= -0.000779  |g|= 0.0178  |ddm|= 0.119
    CPU time for cycle= 3     65.95 sec, wall time      0.54 sec
  HOMO = -0.545665274954967  LUMO = 0.107959986377782
  mo_energy =
[-0.95002385 -0.54566527 -0.54566527 -0.54566527  0.10795999  0.18269562
  0.18269562  0.18269562  0.28005624  0.28005624  0.28005624  0.46745553
  0.5282017   0.5282017   0.53144533  0.53144533  0.53144533  0.60368722
  0.81148615  0.81148615  0.81148615  0.84244107  0.84244107  0.84244107
  0.93577679  0.93577679  0.93577679  1.13650247  1.13650247  1.13650247
  1.17221219  1.17221219  1.17858096  1.38342684  1.38342684  1.38342684
  1.43081435  1.95599764  1.95599764  1.95599764  2.04729909  2.04729909
  2.04729909  2.06459971  2.06459971  2.14270737  2.14270737  2.14270737
  2.18626698  2.36764585  2.36764585  2.36764585  2.5102089   2.5102089
  2.5866224   2.5866224   2.5866224   2.6594253   2.6594253   2.6594253
  2.66295232  2.66295232  2.77836398  3.11854531  3.11854531  3.11854531
  3.16527357  3.16527357  3.16527357  3.35164287  3.44510414  3.44510414
  3.44510414  3.45028422  3.45028422  3.45028422  3.54214359  3.54214359
  3.54214359  3.99905585  4.17923156  4.17923156  4.17923156  4.20943588
  4.20943588  5.57377997  5.57377997  5.57377997  5.6856809   5.6856809
  5.6856809   5.69000156  5.69000156  5.99010289  6.19823409  6.19823409
  6.19823409  6.30931826  6.31549126  6.31549126  6.31549126  6.41676737
  6.41676737  6.41676737  6.51715633  6.52112451  6.52112451  6.52112451
  6.71897268  6.71897268  6.71897268  7.09182479  7.09182479  7.09182479
  7.09989692  7.39429847  7.39429847  7.70418207  7.70418207  7.70418207
  7.74989622  7.74989622  7.74989622  7.78073721  7.78073721  7.80148482
  8.0429915   8.0429915   8.0429915   8.10517256  8.10517256  8.10829685
  8.10829685  8.10829685  8.22144551  8.22144551  8.22144551  8.53449509
  8.67631538  8.67631538  8.76630759  8.76630759  8.76630759  8.78546066
  8.78546066  8.78546066  8.84664669  8.84664669  8.84664669  9.52754478
  9.52754478  9.52754478  9.5791206   9.5791206   9.5791206   9.88742689
  9.88742689 10.30302505 10.49042741 10.49042741 10.54997328 10.54997328
 10.54997328 10.68118043 10.68118043 10.68118043 10.9510734  10.9510734
 10.9510734  10.98654353 12.92620462 12.92620462 12.92620462 21.1590736 ]
E1 = -29.689556488680555  E_coul = 12.256623915434117
cycle= 4 E= -7.84711292974887  delta_E= -0.000104  |g|= 0.00187  |ddm|= 0.0333
    CPU time for cycle= 4     80.12 sec, wall time      0.64 sec
  HOMO = -0.545908865485781  LUMO = 0.107982218862458
  mo_energy =
[-0.95006698 -0.54590887 -0.54590887 -0.54590887  0.10798222  0.18272963
  0.18272963  0.18272963  0.28001444  0.28001444  0.28001444  0.46738489
  0.52822551  0.52822551  0.53138508  0.53138508  0.53138508  0.60362204
  0.81148757  0.81148757  0.81148757  0.84237452  0.84237452  0.84237452
  0.93572986  0.93572986  0.93572986  1.13649621  1.13649621  1.13649621
  1.17220182  1.17220182  1.17849359  1.38337084  1.38337084  1.38337084
  1.43078531  1.95586266  1.95586266  1.95586266  2.04710419  2.04710419
  2.04710419  2.06442736  2.06442736  2.14254002  2.14254002  2.14254002
  2.1859757   2.36767823  2.36767823  2.36767823  2.51015924  2.51015924
  2.58663097  2.58663097  2.58663097  2.65951654  2.65951654  2.65951654
  2.66307446  2.66307446  2.77833856  3.11860938  3.11860938  3.11860938
  3.16525353  3.16525353  3.16525353  3.35161877  3.44502821  3.44502821
  3.44502821  3.45024045  3.45024045  3.45024045  3.54213901  3.54213901
  3.54213901  3.99899489  4.17906018  4.17906018  4.17906018  4.20934147
  4.20934147  5.57347371  5.57347371  5.57347371  5.68535463  5.68535463
  5.68535463  5.68973926  5.68973926  5.98975103  6.19812616  6.19812616
  6.19812616  6.30937204  6.31544895  6.31544895  6.31544895  6.41678565
  6.41678565  6.41678565  6.51717412  6.52095241  6.52095241  6.52095241
  6.7187971   6.7187971   6.7187971   7.09168586  7.09168586  7.09168586
  7.0997715   7.39418428  7.39418428  7.70416696  7.70416696  7.70416696
  7.75000525  7.75000525  7.75000525  7.780813    7.780813    7.8016363
  8.04318981  8.04318981  8.04318981  8.10523508  8.10523508  8.10854476
  8.10854476  8.10854476  8.22163041  8.22163041  8.22163041  8.53446333
  8.67643852  8.67643852  8.76650176  8.76650176  8.76650176  8.78561903
  8.78561903  8.78561903  8.8465313   8.8465313   8.8465313   9.52767301
  9.52767301  9.52767301  9.57914496  9.57914496  9.57914496  9.88736182
  9.88736182 10.30315176 10.49050166 10.49050166 10.54994597 10.54994597
 10.54994597 10.6811426  10.6811426  10.6811426  10.95097197 10.95097197
 10.95097197 10.98653171 12.92616356 12.92616356 12.92616356 21.15861717]
E1 = -29.689580517179174  E_coul = 12.256645797942614
cycle= 5 E= -7.84711507573899  delta_E= -2.15e-06  |g|= 0.00025  |ddm|= 0.00782
    CPU time for cycle= 5     87.62 sec, wall time      0.74 sec
  HOMO = -0.545963352968876  LUMO = 0.107969966498185
  mo_energy =
[-0.9501672  -0.54596335 -0.54596335 -0.54596335  0.10796997  0.1827256
  0.1827256   0.1827256   0.28000162  0.28000162  0.28000162  0.46735749
  0.52821189  0.52821189  0.53136171  0.53136171  0.53136171  0.60360625
  0.81147528  0.81147528  0.81147528  0.84235342  0.84235342  0.84235342
  0.93571014  0.93571014  0.93571014  1.13648285  1.13648285  1.13648285
  1.1721873   1.1721873   1.17846659  1.38334782  1.38334782  1.38334782
  1.4307779   1.95583026  1.95583026  1.95583026  2.04705445  2.04705445
  2.04705445  2.06437981  2.06437981  2.14249539  2.14249539  2.14249539
  2.18591419  2.36766424  2.36766424  2.36766424  2.51013343  2.51013343
  2.58661233  2.58661233  2.58661233  2.65951098  2.65951098  2.65951098
  2.66307248  2.66307248  2.77831547  3.11859884  3.11859884  3.11859884
  3.16523182  3.16523182  3.16523182  3.35159612  3.44500061  3.44500061
  3.44500061  3.45021064  3.45021064  3.45021064  3.54211588  3.54211588
  3.54211588  3.99895961  4.17900839  4.17900839  4.17900839  4.20930364
  4.20930364  5.57340325  5.57340325  5.57340325  5.68526921  5.68526921
  5.68526921  5.68967909  5.68967909  5.98967204  6.19808252  6.19808252
  6.19808252  6.30935579  6.31541554  6.31541554  6.31541554  6.41676553
  6.41676553  6.41676553  6.51715476  6.52090532  6.52090532  6.52090532
  6.71874186  6.71874186  6.71874186  7.09163421  7.09163421  7.09163421
  7.09972923  7.39412922  7.39412922  7.70414085  7.70414085  7.70414085
  7.7499952   7.7499952   7.7499952   7.78079461  7.78079461  7.80163092
  8.04319088  8.04319088  8.04319088  8.10520585  8.10520585  8.10855348
  8.10855348  8.10855348  8.22163076  8.22163076  8.22163076  8.53443093
  8.67643646  8.67643646  8.76650042  8.76650042  8.76650042  8.78561654
  8.78561654  8.78561654  8.8464807   8.8464807   8.8464807   9.52767231
  9.52767231  9.52767231  9.57912421  9.57912421  9.57912421  9.88733159
  9.88733159 10.30314209 10.49049069 10.49049069 10.54991178 10.54991178
 10.54991178 10.68111142 10.68111142 10.68111142 10.95092818 10.95092818
 10.95092818 10.98650898 12.92612047 12.92612047 12.92612047 21.15844173]
E1 = -29.689705818417117  E_coul = 12.25677106897302
cycle= 6 E= -7.84711510594653  delta_E= -3.02e-08  |g|= 1.95e-05  |ddm|= 0.00131
    CPU time for cycle= 6     76.94 sec, wall time      0.63 sec
  HOMO = -0.545967259193656  LUMO = 0.107968161441841
  mo_energy =
[-0.95017177 -0.54596726 -0.54596726 -0.54596726  0.10796816  0.1827246
  0.1827246   0.1827246   0.27999967  0.27999967  0.27999967  0.46735405
  0.52820897  0.52820897  0.53135726  0.53135726  0.53135726  0.60360273
  0.8114736   0.8114736   0.8114736   0.84235058  0.84235058  0.84235058
  0.93570775  0.93570775  0.93570775  1.13648082  1.13648082  1.13648082
  1.17218481  1.17218481  1.17846229  1.38334273  1.38334273  1.38334273
  1.43077276  1.95582602  1.95582602  1.95582602  2.0470482   2.0470482
  2.0470482   2.06437375  2.06437375  2.14248972  2.14248972  2.14248972
  2.18590803  2.3676614   2.3676614   2.3676614   2.5101298   2.5101298
  2.5866084   2.5866084   2.5866084   2.65950861  2.65950861  2.65950861
  2.66307     2.66307     2.7783108   3.11859588  3.11859588  3.11859588
  3.16522846  3.16522846  3.16522846  3.35159147  3.44499643  3.44499643
  3.44499643  3.45020545  3.45020545  3.45020545  3.54211078  3.54211078
  3.54211078  3.99895255  4.17900094  4.17900094  4.17900094  4.2092973
  4.2092973   5.57339384  5.57339384  5.57339384  5.68525861  5.68525861
  5.68525861  5.68967053  5.68967053  5.98966205  6.19807486  6.19807486
  6.19807486  6.30935207  6.31540992  6.31540992  6.31540992  6.416761
  6.416761    6.416761    6.51714971  6.52089741  6.52089741  6.52089741
  6.71873352  6.71873352  6.71873352  7.09162541  7.09162541  7.09162541
  7.09972203  7.39412039  7.39412039  7.70413548  7.70413548  7.70413548
  7.74999017  7.74999017  7.74999017  7.78078913  7.78078913  7.80162634
  8.04318699  8.04318699  8.04318699  8.10519962  8.10519962  8.10855046
  8.10855046  8.10855046  8.22162707  8.22162707  8.22162707  8.5344238
  8.67643184  8.67643184  8.76649666  8.76649666  8.76649666  8.78561253
  8.78561253  8.78561253  8.84647164  8.84647164  8.84647164  9.5276678
  9.5276678   9.5276678   9.57911812  9.57911812  9.57911812  9.88732493
  9.88732493 10.30313595 10.49048545 10.49048545 10.54990433 10.54990433
 10.54990433 10.68110341 10.68110341 10.68110341 10.95091946 10.95091946
 10.95091946 10.98650098 12.92611107 12.92611107 12.92611107 21.1584214 ]
E1 = -29.689720018792972  E_coul = 12.256785269218891
cycle= 7 E= -7.84711510607651  delta_E= -1.3e-10  |g|= 9e-07  |ddm|= 8.72e-05
    CPU time for cycle= 7     96.34 sec, wall time      0.79 sec
  HOMO = -0.545967439350283  LUMO = 0.107968099551275
  mo_energy =
[-0.95017242 -0.54596744 -0.54596744 -0.54596744  0.1079681   0.18272456
  0.18272456  0.18272456  0.27999967  0.27999967  0.27999967  0.46735407
  0.52820889  0.52820889  0.53135735  0.53135735  0.53135735  0.60360285
  0.81147355  0.81147355  0.81147355  0.84235055  0.84235055  0.84235055
  0.93570771  0.93570771  0.93570771  1.13648078  1.13648078  1.13648078
  1.17218477  1.17218477  1.17846233  1.38334276  1.38334276  1.38334276
  1.43077288  1.95582597  1.95582597  1.95582597  2.04704821  2.04704821
  2.04704821  2.06437373  2.06437373  2.14248972  2.14248972  2.14248972
  2.18590802  2.36766132  2.36766132  2.36766132  2.51012974  2.51012974
  2.58660835  2.58660835  2.58660835  2.65950852  2.65950852  2.65950852
  2.66306993  2.66306993  2.7783108   3.11859581  3.11859581  3.11859581
  3.16522839  3.16522839  3.16522839  3.35159142  3.44499636  3.44499636
  3.44499636  3.45020544  3.45020544  3.45020544  3.54211074  3.54211074
  3.54211074  3.9989526   4.17900096  4.17900096  4.17900096  4.20929731
  4.20929731  5.5733939   5.5733939   5.5733939   5.68525871  5.68525871
  5.68525871  5.68967056  5.68967056  5.9896621   6.19807485  6.19807485
  6.19807485  6.30935197  6.31540988  6.31540988  6.31540988  6.41676092
  6.41676092  6.41676092  6.51714963  6.52089743  6.52089743  6.52089743
  6.71873353  6.71873353  6.71873353  7.09162545  7.09162545  7.09162545
  7.09972203  7.39412042  7.39412042  7.70413542  7.70413542  7.70413542
  7.74999009  7.74999009  7.74999009  7.78078907  7.78078907  7.80162624
  8.04318688  8.04318688  8.04318688  8.1051996   8.1051996   8.10855031
  8.10855031  8.10855031  8.22162695  8.22162695  8.22162695  8.53442379
  8.67643172  8.67643172  8.76649654  8.76649654  8.76649654  8.7856124
  8.7856124   8.7856124   8.84647167  8.84647167  8.84647167  9.52766768
  9.52766768  9.52766768  9.57911805  9.57911805  9.57911805  9.88732488
  9.88732488 10.30313588 10.49048534 10.49048534 10.5499043  10.5499043
 10.5499043  10.68110339 10.68110339 10.68110339 10.95091948 10.95091948
 10.95091948 10.98650095 12.9261111  12.9261111  12.9261111  21.15842181]
E1 = -29.689719966856078  E_coul = 12.25678521728192
Extra cycle  E= -7.84711510607659  delta_E= -7.82e-14  |g|= 1.82e-07  |ddm|= 6.88e-06
    CPU time for scf_cycle    761.52 sec, wall time      6.72 sec
    CPU time for SCF    761.99 sec, wall time      6.72 sec
converged SCF energy = -7.84711510607659
