#INFO: **** input file is /home/nkousuke/lustre/toBeSync/turboRVB/05turbo-genius-development/turbogenius_paper/04data/sanity_checks/02pyscf_prep_LDA_via_trexio/00open_boundary/results/P2/pyscf-LDA-workflow/run.py ****

from pyscf_wrapper import Pyscf_wrapper

# input variables
pyscf_chkfile="pyscf.chk"
structure_file="P2.xyz"

# input variables
omp_num_threads=128
charge=0
spin=0
basis="ccecp-ccpvqz"
ecp="ccecp"
scf_method="DFT"
dft_xc="LDA_X,LDA_C_PZ"
solver_newton=False
MP2_flag=False
CCSD_flag=False
pyscf_output="out.pyscf"
twist_average=False
exp_to_discard=0.1
kpt=[0.0, 0.0, 0.0]
kpt_grid=[1, 1, 1]
smearing_method="fermi"
smearing_sigma=0.0

pyscf_calc=Pyscf_wrapper(
                        structure_file=structure_file,
                        chkfile=pyscf_chkfile,
                        )

pyscf_calc.run_pyscf(
                  omp_num_threads=omp_num_threads,
                  charge=charge,
                  spin=spin,
                  basis=basis,
                  ecp=ecp,
                  scf_method=scf_method,
                  dft_xc=dft_xc,
                  solver_newton=solver_newton,
                  MP2_flag=MP2_flag,
                  CCSD_flag=CCSD_flag,
                  pyscf_output=pyscf_output,
                  twist_average=twist_average,
                  exp_to_discard=exp_to_discard,
                  kpt=kpt,
                  kpt_grid=kpt_grid,
                  smearing_method=smearing_method,
                  smearing_sigma=smearing_sigma
                  )
                #INFO: ******************** input file end ********************


System: uname_result(system='Linux', node='spcc-109', release='5.4.0-66-generic', version='#74-Ubuntu SMP Wed Jan 27 22:54:38 UTC 2021', machine='x86_64', processor='x86_64')  Threads 128
Python 3.7.3 (default, Mar 27 2019, 22:11:17) 
[GCC 7.3.0]
numpy 1.20.1  scipy 1.7.3
Date: Thu Dec 22 07:24:13 2022
PySCF version 2.0.1
PySCF path  /home/nkousuke/application/anaconda3/lib/python3.7/site-packages/pyscf

[CONFIG] conf_file /home/nkousuke/.pyscf_conf.py
[INPUT] verbose = 5
[INPUT] max_memory = 507910.03515625 
[INPUT] num. atoms = 2
[INPUT] num. electrons = 10
[INPUT] charge = 0
[INPUT] spin (= nelec alpha-beta = 2S) = 0
[INPUT] symmetry False subgroup None
[INPUT] Mole.unit = A
[INPUT]  1 P      0.000000000000   0.000000000000   0.946750000000 AA    0.000000000000   0.000000000000   1.789098208432 Bohr
[INPUT]  2 P      0.000000000000   0.000000000000  -0.946750000000 AA    0.000000000000   0.000000000000  -1.789098208432 Bohr
[INPUT] ---------------- BASIS SET ---------------- 
[INPUT] l, kappa, [nprim/nctr], expnt,             c_1 c_2 ...
[INPUT] P
[INPUT] 0    0    [10   /1   ]  5.054268          0.001781
                                3.094719          0.077653
                                1.894891          -0.312344
                                1.160239          -0.045804
                                0.710412          -0.029427
                                0.434984          0.31856
                                0.26634           0.309169
                                0.16308           0.376899
                                0.099853          0.152113
                                0.06114           0.054943
[INPUT] 0    0    [1    /1   ]  0.636005             1
[INPUT] 0    0    [1    /1   ]  0.25859              1
[INPUT] 0    0    [1    /1   ]  0.105139             1
[INPUT] 1    0    [10   /1   ]  5.861284          -0.00316
                                3.406365          0.007462
                                1.979655          -0.060893
                                1.150503          0.015297
                                0.668631          0.123431
                                0.388584          0.257276
                                0.225831          0.305131
                                0.131245          0.276016
                                0.076275          0.134133
                                0.044328          0.040073
[INPUT] 1    0    [1    /1   ]  1.653678             1
[INPUT] 1    0    [1    /1   ]  0.679946             1
[INPUT] 1    0    [1    /1   ]  0.279575             1
[INPUT] 2    0    [1    /1   ]  1.375779             1
[INPUT] 2    0    [1    /1   ]  0.502887             1
[INPUT] 2    0    [1    /1   ]  0.18382              1
[INPUT] 3    0    [1    /1   ]  0.72673              1
[INPUT] 3    0    [1    /1   ]  0.284724             1
[INPUT] 4    0    [1    /1   ]  0.59499              1

nuclear repulsion = 6.9867601124901
number of shells = 28
number of NR pGTOs = 180
number of NR cGTOs = 108
basis = ccecp-ccpvqz
ecp = ccecp
CPU time:         6.06


******** <class 'pyscf.df.df_jk.density_fit.<locals>.DFHF'> ********
method = DFHF-RKS-RHF
initial guess = minao
damping factor = 0
level_shift factor = 0
DIIS = <class 'pyscf.scf.diis.CDIIS'>
diis_start_cycle = 1
diis_space = 8
SCF conv_tol = 1e-09
SCF conv_tol_grad = None
SCF max_cycles = 200
direct_scf = True
direct_scf_tol = 1e-13
chkfile to save SCF result = pyscf.chk
max_memory 507910 MB (current use 106 MB)
XC library pyscf.dft.libxc version 5.1.7
    S. Lehtola, C. Steigemann, M. J. Oliveira, and M. A. Marques, SoftwareX 7, 1 (2018)
XC functionals = LDA_X,LDA_C_PZ
    P. A. M. Dirac, Math. Proc. Cambridge Philos. Soc. 26, 376 (1930)
    F. Bloch, Z. Phys. 57, 545 (1929)
    J. P. Perdew and A. Zunger, Phys. Rev. B 23, 5048 (1981)
radial grids: 
    Treutler-Ahlrichs [JCP 102, 346 (1995); DOI:10.1063/1.469408] (M4) radial grids
    
becke partition: Becke, JCP 88, 2547 (1988); DOI:10.1063/1.454033
pruning grids: <function nwchem_prune at 0x1474885a1730>
grids dens level: 3
symmetrized grids: False
atomic radii adjust function: <function treutler_atomic_radii_adjust at 0x1474885a1620>
small_rho_cutoff = 1e-07
Set gradient conv threshold to 3.16228e-05
atom P rad-grids = 80, ang-grids = [ 50  50  50  50  50  50  50  50  50  50  50  50  50  50  50  50  50  50
  50  50  50  50  50  50  86  86  86  86  86  86  86  86  86  86  86  86
  86 350 350 350 350 350 350 350 350 350 434 434 434 434 434 434 434 434
 434 434 434 434 434 434 434 434 434 434 350 350 350 350 350 350 350 350
 350 350 350 350 350 350 350 350]
tot grids = 37760
Drop grids 1506
    CPU time for setting up grids     30.73 sec, wall time      0.27 sec
nelec by numeric integration = 9.999999957575307
    CPU time for vxc     46.10 sec, wall time      0.37 sec
Even tempered Gaussians are generated as DF auxbasis for  P
  ETB auxbasis for P  [[0, [7.82592, 1]], [0, [3.91296, 1]], [0, [1.95648, 1]], [0, [0.97824, 1]], [0, [0.48912, 1]], [0, [0.24456, 1]], [0, [0.12228, 1]], [1, [6.663643512769872, 1]], [1, [3.331821756384936, 1]], [1, [1.665910878192468, 1]], [1, [0.832955439096234, 1]], [1, [0.416477719548117, 1]], [1, [0.2082388597740585, 1]], [1, [0.10411942988702926, 1]], [2, [11.347968, 1]], [2, [5.673984, 1]], [2, [2.836992, 1]], [2, [1.418496, 1]], [2, [0.709248, 1]], [2, [0.354624, 1]], [2, [0.177312, 1]], [2, [0.088656, 1]], [3, [5.777173672667285, 1]], [3, [2.8885868363336424, 1]], [3, [1.4442934181668212, 1]], [3, [0.7221467090834106, 1]], [3, [0.3610733545417053, 1]], [3, [0.18053667727085265, 1]], [4, [2.94112, 1]], [4, [1.47056, 1]], [4, [0.73528, 1]], [4, [0.36764, 1]]]
num shells = 64, num cGTOs = 292
    CPU time for df-vj     32.28 sec, wall time      0.25 sec
E1 = -33.784634859917226  Ecoul = 16.99947363559002  Exc = -3.0908441829581093
init E= -12.8892452947952
cond(S) = 8092.3767307341395
    CPU time for initialize scf    232.51 sec, wall time      2.09 sec
  HOMO = -0.287923622067096  LUMO = -0.133825294062807
  mo_energy =
[-6.84583863e-01 -4.40072591e-01 -2.89288530e-01 -2.89288530e-01
 -2.87923622e-01 -1.33825294e-01 -1.33825294e-01  6.27697414e-03
  6.32457263e-02  1.16384389e-01  1.16384389e-01  1.22341096e-01
  1.22341100e-01  1.54604191e-01  1.89459810e-01  2.39207541e-01
  2.39207541e-01  2.65405794e-01  2.65405816e-01  2.75230969e-01
  2.75230969e-01  3.39712436e-01  4.35476628e-01  4.56429972e-01
  4.56429972e-01  6.29704439e-01  7.21436172e-01  7.21436172e-01
  7.31542797e-01  7.35038056e-01  7.35038069e-01  7.45819193e-01
  7.45819193e-01  8.87568820e-01  8.87568820e-01  9.02251301e-01
  9.02251354e-01  9.51532047e-01  9.51532272e-01  9.83485956e-01
  1.02821421e+00  1.02821421e+00  1.10475176e+00  1.14278234e+00
  1.14278360e+00  1.15781585e+00  1.15781585e+00  1.16171874e+00
  1.16171874e+00  1.26808860e+00  1.47641901e+00  1.47641901e+00
  1.51251147e+00  1.71341006e+00  1.86144157e+00  1.86144157e+00
  1.87271888e+00  2.20135211e+00  2.20135212e+00  2.23860623e+00
  2.24321250e+00  2.24321250e+00  2.27616894e+00  2.27616894e+00
  2.41381490e+00  2.42616085e+00  2.42616101e+00  2.51965799e+00
  2.51965816e+00  2.53635628e+00  2.53635628e+00  2.58526972e+00
  2.58526972e+00  2.66514222e+00  2.66514286e+00  2.69670070e+00
  2.69670074e+00  2.76530885e+00  2.76530885e+00  2.81207894e+00
  2.81207894e+00  2.89621646e+00  2.95471752e+00  2.95471752e+00
  2.98572977e+00  3.07631775e+00  3.07631775e+00  3.11109283e+00
  3.11109813e+00  3.11118910e+00  3.13613017e+00  3.13613596e+00
  3.23357454e+00  3.23357454e+00  3.36010732e+00  3.36010926e+00
  3.64416725e+00  4.26541174e+00  4.26541174e+00  5.02526339e+00
  6.73203242e+00  6.73203242e+00  6.94688295e+00  6.94688295e+00
  7.28988425e+00  7.29523696e+00  1.18465490e+01  1.19795202e+01]
nelec by numeric integration = 9.999999963597684
    CPU time for vxc     37.41 sec, wall time      0.30 sec
    CPU time for df-vj      2.05 sec, wall time      0.02 sec
E1 = -34.49794968037759  Ecoul = 17.691992608720437  Exc = -3.188598925698035
cycle= 1 E= -13.0077958848651  delta_E= -0.119  |g|= 0.247  |ddm|= 2.04
    CPU time for cycle= 1     43.56 sec, wall time      0.35 sec
  HOMO = -0.225192515140368  LUMO = -0.105501068306883
  mo_energy =
[-0.56644136 -0.4115488  -0.23365573 -0.22519252 -0.22519252 -0.10550107
 -0.10550107  0.03277473  0.11571945  0.16433936  0.16433938  0.16689094
  0.16689094  0.17112967  0.2032562   0.26151294  0.26151294  0.29115787
  0.2911579   0.30036777  0.30036777  0.36620676  0.46366309  0.48404374
  0.48404374  0.66982961  0.75839779  0.75839779  0.78006853  0.7800686
  0.80630158  0.81003264  0.81003264  0.91318831  0.91318831  0.94870249
  0.9487025   0.99869829  0.99869851  1.00833815  1.06024793  1.06024793
  1.1259885   1.16562917  1.16563026  1.19504712  1.19504712  1.21599104
  1.21599104  1.36936767  1.52811882  1.52811882  1.54540583  1.73531303
  1.89741188  1.89741188  1.95803147  2.28642946  2.30180535  2.30180536
  2.33579561  2.33579561  2.35260021  2.35260021  2.47013228  2.47013246
  2.50479684  2.56101566  2.56101586  2.58810336  2.58810336  2.64657577
  2.64657577  2.70537324  2.70537376  2.76263216  2.76263221  2.8046323
  2.8046323   2.83984766  2.83984766  2.95297276  3.01876312  3.04347229
  3.04347229  3.15465845  3.15465845  3.15953941  3.15954435  3.19692869
  3.19693434  3.19988505  3.27435511  3.27435511  3.42541442  3.42541647
  3.78419289  4.36057149  4.36057149  5.10091142  6.80930803  6.80930803
  7.02032222  7.02032222  7.36154669  7.39816838 11.9443081  12.07385793]
nelec by numeric integration = 9.999999966142935
    CPU time for vxc     26.59 sec, wall time      0.21 sec
    CPU time for df-vj      2.55 sec, wall time      0.02 sec
E1 = -33.69511630503953  Ecoul = 16.770330119108486  Exc = -3.058992911388038
cycle= 2 E= -12.997018984829  delta_E= 0.0108  |g|= 0.281  |ddm|= 1.17
    CPU time for cycle= 2     64.01 sec, wall time      0.50 sec
  HOMO = -0.265256867370756  LUMO = -0.127590986772706
  mo_energy =
[-0.63401278 -0.43199319 -0.2672326  -0.2672326  -0.26525687 -0.12759099
 -0.12759099  0.01796083  0.08260282  0.13400946  0.13400947  0.13569964
  0.13569964  0.16168377  0.1948089   0.24331281  0.24331281  0.27042623
  0.27042626  0.2821651   0.2821651   0.34836427  0.44499754  0.46592043
  0.46592043  0.64726075  0.730787    0.730787    0.7507849   0.75078495
  0.76194726  0.7709509   0.7709509   0.89222644  0.89222644  0.91318364
  0.91318365  0.96361989  0.9636201   0.99268628  1.03947636  1.03947636
  1.11159506  1.14850215  1.14850326  1.17073349  1.17073349  1.17919238
  1.17919238  1.30895202  1.4905654   1.4905654   1.52178978  1.71928606
  1.87208151  1.87208151  1.90841915  2.24083444  2.24083445  2.25486737
  2.28784074  2.28784074  2.29662312  2.29662312  2.43554454  2.43554472
  2.45067077  2.52776651  2.5277667   2.54730383  2.54730383  2.60180999
  2.60180999  2.67714743  2.67714798  2.71960019  2.7196002   2.77505048
  2.77505048  2.82273708  2.82273708  2.92093719  2.98636673  2.98636673
  2.99551995  3.10733308  3.10733308  3.12314709  3.12315214  3.14438449
  3.15183671  3.1518423   3.24507491  3.24507491  3.38247206  3.38247396
  3.70382564  4.30330438  4.30330438  5.05580818  6.75686233  6.75686233
  6.97039796  6.97039796  7.31602599  7.33543645 11.88393944 12.01522634]
nelec by numeric integration = 9.999999965206259
    CPU time for vxc     34.13 sec, wall time      0.27 sec
    CPU time for df-vj      4.07 sec, wall time      0.03 sec
E1 = -34.19601689076815  Ecoul = 17.313774514168905  Exc = -3.134639453838976
cycle= 3 E= -13.0301217179481  delta_E= -0.0331  |g|= 0.02  |ddm|= 0.763
    CPU time for cycle= 3     79.66 sec, wall time      0.62 sec
  HOMO = -0.262750207071841  LUMO = -0.124629610378097
  mo_energy =
[-0.62865063 -0.42944934 -0.26345721 -0.26275021 -0.26275021 -0.12462961
 -0.12462961  0.01908431  0.08544269  0.13770712  0.13770713  0.13818872
  0.13818872  0.16237183  0.19537508  0.24579876  0.24579876  0.27330675
  0.27330678  0.28432116  0.28432116  0.35029125  0.44685105  0.4677207
  0.4677207   0.64856866  0.73430462  0.73430462  0.75363243  0.75363247
  0.76487485  0.773837    0.773837    0.89522397  0.89522397  0.917434
  0.91743401  0.9676453   0.96764551  0.99428281  1.04177374  1.04177374
  1.1132206   1.1507031   1.15070422  1.17327614  1.17327614  1.18241064
  1.18241064  1.31291838  1.4946505   1.4946505   1.52451847  1.72112931
  1.87486448  1.87486448  1.91171121  2.24544529  2.2454453   2.25798785
  2.29224036  2.29224036  2.30053804  2.30053804  2.44000085  2.44000104
  2.45444576  2.53216001  2.5321602   2.55218821  2.55218821  2.60697461
  2.60697461  2.68020572  2.68020628  2.72366145  2.72366146  2.77847137
  2.77847137  2.82452737  2.82452737  2.92330934  2.99099643  2.99099643
  2.99810103  3.11094966  3.11094966  3.12734542  3.12735047  3.14836166
  3.15693816  3.15694377  3.24828652  3.24828652  3.38644854  3.38645046
  3.70854836  4.30757879  4.30757879  5.05920319  6.7623178   6.7623178
  6.9756242   6.9756242   7.32023414  7.34038375 11.88980721 12.02103744]
nelec by numeric integration = 9.999999965267879
    CPU time for vxc     42.51 sec, wall time      0.33 sec
    CPU time for df-vj      8.55 sec, wall time      0.07 sec
E1 = -34.16139970257864  Ecoul = 17.273487145574144  Exc = -3.1291560060688357
cycle= 4 E= -13.0303084505832  delta_E= -0.000187  |g|= 0.00108  |ddm|= 0.0565
    CPU time for cycle= 4    119.58 sec, wall time      0.94 sec
  HOMO = -0.262899680254344  LUMO = -0.124688248809647
  mo_energy =
[-0.62882035 -0.42944802 -0.26344033 -0.26289968 -0.26289968 -0.12468825
 -0.12468825  0.01906693  0.08533227  0.13756899  0.13756901  0.13810475
  0.13810475  0.16239372  0.19537966  0.24572813  0.24572813  0.27322054
  0.27322057  0.28424125  0.28424125  0.35021977  0.44681525  0.46768083
  0.46768083  0.64855493  0.73416649  0.73416649  0.75352867  0.75352871
  0.7647772   0.77375376  0.77375376  0.89511895  0.89511895  0.91732683
  0.91732684  0.96753947  0.96753969  0.99427098  1.04174996  1.04174996
  1.11321681  1.15064427  1.15064538  1.173226    1.173226    1.18231336
  1.18231336  1.31280599  1.49455579  1.49455579  1.52450447  1.72116284
  1.87482532  1.87482532  1.91162539  2.24529173  2.24529174  2.25794289
  2.29212175  2.29212175  2.30042702  2.30042702  2.43986769  2.43986788
  2.45437978  2.53203248  2.53203268  2.5520657   2.5520657   2.60682772
  2.60682772  2.68018281  2.68018336  2.72357822  2.72357822  2.77840396
  2.77840396  2.82457192  2.82457192  2.92332036  2.99088243  2.99088243
  2.99811071  3.11090637  3.11090637  3.12727131  3.12727637  3.14825305
  3.15684438  3.15684999  3.24825996  3.24825996  3.38637464  3.38637657
  3.70843993  4.30749274  4.30749274  5.05918539  6.76224909  6.76224909
  6.97556784  6.97556784  7.32021418  7.34031641 11.88973088 12.02096763]
nelec by numeric integration = 9.999999965265332
    CPU time for vxc     35.92 sec, wall time      0.29 sec
    CPU time for df-vj      7.49 sec, wall time      0.06 sec
E1 = -34.16241670204073  Ecoul = 17.27457896753721  Exc = -3.129231361761731
cycle= 5 E= -13.0303089837752  delta_E= -5.33e-07  |g|= 0.000181  |ddm|= 0.00151
    CPU time for cycle= 5     98.35 sec, wall time      0.78 sec
  HOMO = -0.262952368846401  LUMO = -0.12474064554113
  mo_energy =
[-0.62888895 -0.42951367 -0.26350324 -0.26295237 -0.26295237 -0.12474065
 -0.12474065  0.01902866  0.08529559  0.13752928  0.13752929  0.13806262
  0.13806262  0.16235477  0.19534399  0.24568855  0.24568855  0.27317914
  0.27317917  0.28420738  0.28420738  0.35018912  0.44677278  0.46763972
  0.46763972  0.64850926  0.73413131  0.73413131  0.75348936  0.7534894
  0.76472991  0.77370283  0.77370283  0.89508305  0.89508305  0.91726625
  0.91726626  0.96748037  0.96748058  0.99422485  1.04169475  1.04169475
  1.11316848  1.15060568  1.15060679  1.17317624  1.17317624  1.18226427
  1.18226427  1.31273917  1.49449311  1.49449311  1.5244398   1.72109845
  1.87476715  1.87476715  1.9115649   2.24523152  2.24523153  2.25787922
  2.29205405  2.29205405  2.30037183  2.30037183  2.43981446  2.43981465
  2.45430798  2.53197891  2.5319791   2.55199845  2.55199845  2.6067618
  2.6067618   2.68011552  2.68011608  2.72350866  2.72350867  2.77834651
  2.77834651  2.82450432  2.82450432  2.92324808  2.99080952  2.99080952
  2.99804149  3.1108284   3.1108284   3.12720157  3.12720663  3.14818899
  3.1567645   3.15677012  3.24819069  3.24819069  3.38630505  3.38630698
  3.70835399  4.30741656  4.30741656  5.05910404  6.76215355  6.76215355
  6.97547254  6.97547254  7.32011655  7.34021722 11.88962699 12.02086342]
nelec by numeric integration = 9.999999965264658
    CPU time for vxc     32.89 sec, wall time      0.26 sec
    CPU time for df-vj      7.47 sec, wall time      0.06 sec
E1 = -34.16275813189568  Ecoul = 17.27500212411332  Exc = -3.1293131023185485
cycle= 6 E= -13.0303089976108  delta_E= -1.38e-08  |g|= 1.34e-06  |ddm|= 0.000867
    CPU time for cycle= 6     95.75 sec, wall time      0.75 sec
  HOMO = -0.262952683017393  LUMO = -0.124740897139223
  mo_energy =
[-0.6288892  -0.4295138  -0.26350328 -0.26295268 -0.26295268 -0.1247409
 -0.1247409   0.01902857  0.08529531  0.13752893  0.13752894  0.13806242
  0.13806242  0.16235475  0.19534382  0.24568828  0.24568828  0.27317884
  0.27317887  0.28420711  0.28420711  0.35018892  0.44677264  0.46763955
  0.46763955  0.64850917  0.73413095  0.73413095  0.75348911  0.75348915
  0.7647297   0.77370262  0.77370262  0.89508271  0.89508271  0.91726595
  0.91726596  0.96748008  0.9674803   0.99422473  1.04169458  1.04169458
  1.11316835  1.15060543  1.15060654  1.17317608  1.17317608  1.18226407
  1.18226407  1.312739    1.49449287  1.49449287  1.52443966  1.72109838
  1.87476701  1.87476701  1.91156482  2.2452313   2.24523131  2.25787908
  2.29205385  2.29205385  2.30037158  2.30037158  2.43981408  2.43981427
  2.45430784  2.53197853  2.53197873  2.55199812  2.55199812  2.60676148
  2.60676148  2.68011538  2.68011594  2.72350846  2.72350846  2.77834625
  2.77834625  2.82450426  2.82450426  2.92324808  2.99080931  2.99080931
  2.99804136  3.11082837  3.11082837  3.12720136  3.12720641  3.14818883
  3.1567643   3.15676992  3.24819051  3.24819051  3.38630494  3.38630687
  3.70835393  4.30741648  4.30741648  5.05910396  6.76215351  6.76215351
  6.97547252  6.97547252  7.32011651  7.34021716 11.88962702 12.02086344]
nelec by numeric integration = 9.999999965264674
    CPU time for vxc     34.46 sec, wall time      0.27 sec
    CPU time for df-vj      7.47 sec, wall time      0.06 sec
E1 = -34.16275848418389  Ecoul = 17.275002381625985  Exc = -3.1293130075438675
cycle= 7 E= -13.0303089976117  delta_E= -8.67e-13  |g|= 1.05e-07  |ddm|= 3.16e-06
    CPU time for cycle= 7     72.20 sec, wall time      0.56 sec
  HOMO = -0.262952748038552  LUMO = -0.124740952001141
  mo_energy =
[-0.62888928 -0.42951387 -0.26350334 -0.26295275 -0.26295275 -0.12474095
 -0.12474095  0.01902852  0.08529526  0.13752888  0.13752889  0.13806237
  0.13806237  0.16235471  0.19534378  0.24568823  0.24568823  0.27317879
  0.27317882  0.28420707  0.28420707  0.35018889  0.4467726   0.4676395
  0.4676395   0.64850912  0.7341309   0.7341309   0.75348906  0.7534891
  0.76472964  0.77370255  0.77370255  0.89508267  0.89508267  0.91726588
  0.91726589  0.96748002  0.96748024  0.99422468  1.04169452  1.04169452
  1.11316829  1.15060539  1.1506065   1.17317603  1.17317603  1.18226401
  1.18226401  1.31273892  1.4944928   1.4944928   1.5244396   1.72109832
  1.87476695  1.87476695  1.91156475  2.24523122  2.24523123  2.25787901
  2.29205377  2.29205377  2.30037151  2.30037151  2.43981402  2.43981421
  2.45430776  2.53197847  2.53197867  2.55199805  2.55199805  2.6067614
  2.6067614   2.68011531  2.68011587  2.72350838  2.72350839  2.77834619
  2.77834619  2.82450419  2.82450419  2.923248    2.99080923  2.99080923
  2.99804129  3.11082829  3.11082829  3.12720129  3.12720634  3.14818875
  3.15676422  3.15676984  3.24819044  3.24819044  3.38630487  3.3863068
  3.70835383  4.30741639  4.30741639  5.05910387  6.76215343  6.76215343
  6.97547243  6.97547243  7.32011642  7.34021706 11.88962693 12.02086335]
nelec by numeric integration = 9.999999965264674
    CPU time for vxc     35.11 sec, wall time      0.28 sec
    CPU time for df-vj      8.04 sec, wall time      0.06 sec
E1 = -34.16275889228398  Ecoul = 17.275002873749344  Exc = -3.1293130915670755
Extra cycle  E= -13.0303089976116  delta_E= 5.68e-14  |g|= 1.06e-07  |ddm|= 8.43e-07
    CPU time for scf_cycle    869.35 sec, wall time      7.10 sec
    CPU time for SCF    869.79 sec, wall time      7.10 sec
converged SCF energy = -13.0303089976116
