#INFO: **** input file is /home/nkousuke/lustre/toBeSync/turboRVB/05turbo-genius-development/turbogenius_paper/04data/sanity_checks/03pyscf_HF_turbo_VMC_via_trexio/00open_boundary/results/LiF/pyscf-HF-workflow/run.py ****

from pyscf_wrapper import Pyscf_wrapper

# input variables
pyscf_chkfile="pyscf.chk"
structure_file="LiF.xyz"

# input variables
omp_num_threads=128
charge=0
spin=0
basis="ccecp-ccpvqz"
ecp="ccecp"
scf_method="HF"
dft_xc="NA"
solver_newton=False
MP2_flag=False
CCSD_flag=False
pyscf_output="out.pyscf"
twist_average=False
exp_to_discard=0.0
kpt=[0.0, 0.0, 0.0]
kpt_grid=[1, 1, 1]
smearing_method="fermi"
smearing_sigma=0.0

pyscf_calc=Pyscf_wrapper(
                        structure_file=structure_file,
                        chkfile=pyscf_chkfile,
                        )

pyscf_calc.run_pyscf(
                  omp_num_threads=omp_num_threads,
                  charge=charge,
                  spin=spin,
                  basis=basis,
                  ecp=ecp,
                  scf_method=scf_method,
                  dft_xc=dft_xc,
                  solver_newton=solver_newton,
                  MP2_flag=MP2_flag,
                  CCSD_flag=CCSD_flag,
                  pyscf_output=pyscf_output,
                  twist_average=twist_average,
                  exp_to_discard=exp_to_discard,
                  kpt=kpt,
                  kpt_grid=kpt_grid,
                  smearing_method=smearing_method,
                  smearing_sigma=smearing_sigma
                  )
                #INFO: ******************** input file end ********************


System: uname_result(system='Linux', node='spcc-238', release='5.4.0-66-generic', version='#74-Ubuntu SMP Wed Jan 27 22:54:38 UTC 2021', machine='x86_64', processor='x86_64')  Threads 128
Python 3.7.3 (default, Mar 27 2019, 22:11:17) 
[GCC 7.3.0]
numpy 1.20.1  scipy 1.7.3
Date: Mon Dec 19 18:03:05 2022
PySCF version 2.0.1
PySCF path  /home/nkousuke/application/anaconda3/lib/python3.7/site-packages/pyscf

[CONFIG] conf_file /home/nkousuke/.pyscf_conf.py
[INPUT] verbose = 5
[INPUT] max_memory = 506335.5703125 
[INPUT] num. atoms = 2
[INPUT] num. electrons = 8
[INPUT] charge = 0
[INPUT] spin (= nelec alpha-beta = 2S) = 0
[INPUT] symmetry False subgroup None
[INPUT] Mole.unit = A
[INPUT]  1 Li     0.000000000000   0.000000000000   1.563900000000 AA    0.000000000000   0.000000000000   2.955342686207 Bohr
[INPUT]  2 F      0.000000000000   0.000000000000   0.000000000000 AA    0.000000000000   0.000000000000   0.000000000000 Bohr
[INPUT] ---------------- BASIS SET ---------------- 
[INPUT] l, kappa, [nprim/nctr], expnt,             c_1 c_2 ...
[INPUT] F
[INPUT] 0    0    [10   /1   ]  84.048652         -2.8e-06
                                41.094617         -0.0003543
                                20.092738         0.0184088
                                9.824112          -0.1277661
                                4.803386          -0.0702872
                                2.34856           0.1571604
                                1.148301          0.3769012
                                0.561449          0.4095165
                                0.274514          0.1970893
                                0.13422           0.0243482
[INPUT] 0    0    [1    /1   ]  1.705653             1
[INPUT] 0    0    [1    /1   ]  1.048013             1
[INPUT] 0    0    [1    /1   ]  0.294345             1
[INPUT] 1    0    [10   /1   ]  31.642619         0.0029673
                                16.243233         0.0298049
                                8.338204          0.0669489
                                4.280284          0.133779
                                2.197215          0.2148312
                                1.127906          0.2664862
                                0.578992          0.2618954
                                0.297216          0.1920217
                                0.152571          0.0828465
                                0.07832           0.0133046
[INPUT] 1    0    [1    /1   ]  1.650688             1
[INPUT] 1    0    [1    /1   ]  0.64724              1
[INPUT] 1    0    [1    /1   ]  0.205806             1
[INPUT] 2    0    [1    /1   ]  4.998085             1
[INPUT] 2    0    [1    /1   ]  1.724392             1
[INPUT] 2    0    [1    /1   ]  0.587354             1
[INPUT] 3    0    [1    /1   ]  3.694285             1
[INPUT] 3    0    [1    /1   ]  1.178147             1
[INPUT] 4    0    [1    /1   ]  2.406583             1
[INPUT] Li
[INPUT] 0    0    [10   /1   ]  16.001258         4.34e-05
                                7.583113          -0.0007531
                                3.593693          -0.0002519
                                1.703077          0.0169674
                                0.807101          -0.0909921
                                0.382491          -0.0893155
                                0.181265          0.0294155
                                0.085903          0.364402
                                0.04071           0.5504973
                                0.019293          0.1744412
[INPUT] 0    0    [1    /1   ]  0.519693             1
[INPUT] 0    0    [1    /1   ]  0.10977              1
[INPUT] 0    0    [1    /1   ]  0.024834             1
[INPUT] 1    0    [10   /1   ]  7.004881          -0.0005306
                                3.451199          0.0012949
                                1.700353          0.0070115
                                0.837738          0.0171604
                                0.412741          0.036724
                                0.203351          0.0965042
                                0.100188          0.2211013
                                0.049361          0.3835358
                                0.02432           0.3350564
                                0.011982          0.0781453
[INPUT] 1    0    [1    /1   ]  0.207505             1
[INPUT] 1    0    [1    /1   ]  0.115823             1
[INPUT] 1    0    [1    /1   ]  0.070662             1
[INPUT] 2    0    [1    /1   ]  0.21499              1
[INPUT] 2    0    [1    /1   ]  0.089353             1
[INPUT] 2    0    [1    /1   ]  0.029817             1
[INPUT] 3    0    [1    /1   ]  0.240323             1
[INPUT] 3    0    [1    /1   ]  0.09993              1
[INPUT] 4    0    [1    /1   ]  0.19957              1

nuclear repulsion = 2.36859164680606
number of shells = 28
number of NR pGTOs = 180
number of NR cGTOs = 108
basis = ccecp-ccpvqz
ecp = ccecp
CPU time:         5.70


******** <class 'pyscf.scf.hf.RHF'> ********
method = RHF
initial guess = minao
damping factor = 0
level_shift factor = 0
DIIS = <class 'pyscf.scf.diis.CDIIS'>
diis_start_cycle = 1
diis_space = 8
SCF conv_tol = 1e-09
SCF conv_tol_grad = None
SCF max_cycles = 200
direct_scf = True
direct_scf_tol = 1e-13
chkfile to save SCF result = pyscf.chk
max_memory 506335 MB (current use 106 MB)
Set gradient conv threshold to 3.16228e-05
E1 = -45.309447307355676  E_coul = 19.13928982194188
init E= -23.8015658386077
cond(S) = 7080.244930395669
    CPU time for initialize scf     94.42 sec, wall time      0.88 sec
  HOMO = -0.681584496149207  LUMO = -0.0593275330386986
  mo_energy =
[-1.71064047 -0.70007993 -0.6815845  -0.6815845  -0.05932753  0.04220856
  0.04220856  0.04983912  0.09248218  0.09248218  0.09413052  0.09413052
  0.09458787  0.0977504   0.15099391  0.15099391  0.1857479   0.31438998
  0.31438998  0.33494168  0.33494168  0.35154143  0.37407228  0.37407228
  0.38513949  0.39387158  0.39387158  0.39911671  0.39911671  0.41226506
  0.41226506  0.42078205  0.49935616  0.76592709  0.83925092  0.83925092
  0.87044747  0.87044747  0.87340441  0.87596246  0.87596246  0.90103213
  0.90103213  1.00250184  1.00250184  1.02845692  1.03784644  1.03784644
  1.04308763  1.04308763  1.13392955  1.13392955  1.14949473  1.17235699
  1.17235699  1.19592081  1.19592081  1.33139608  1.33139608  1.648666
  1.69982037  1.93426011  1.93426011  2.04966761  2.33371014  2.33371014
  2.78730794  3.31064264  3.31064264  3.78815635  4.56406912  4.56406912
  4.57995953  4.57995953  4.61529628  4.62715796  4.62715796  5.52587125
  5.52587125  5.62028411  5.91065312  5.91065312  6.57452452 10.79388686
 10.79388686 11.40502507 11.94482114 11.94482114 11.94853034 11.95351214
 11.95351214 11.96118694 11.96118694 11.96763623 11.96763623 15.56857692
 15.56857692 15.57035192 15.57035192 15.5826932  15.59599823 15.59599823
 16.27230212 16.27230212 16.37493646 16.5643833  16.5643833  33.68808381]
E1 = -48.97794900893292  E_coul = 22.40397355865746
cycle= 1 E= -24.2053838034694  delta_E= -0.404  |g|= 0.646  |ddm|= 1.36
    CPU time for cycle= 1     73.21 sec, wall time      0.61 sec
  HOMO = -0.307659096654595  LUMO = -0.00967063347265759
  mo_energy =
[-1.20751905e+00 -3.22632316e-01 -3.07659097e-01 -3.07659097e-01
 -9.67063347e-03  3.87559530e-02  3.87559530e-02  6.12505307e-02
  8.94891142e-02  8.94891142e-02  9.19678972e-02  1.06844076e-01
  1.06844076e-01  1.23597264e-01  1.55391843e-01  1.55391843e-01
  2.15245239e-01  3.08096571e-01  3.08096571e-01  3.31115180e-01
  3.31115180e-01  3.39531336e-01  3.72460507e-01  3.88088899e-01
  3.88088899e-01  3.92629906e-01  3.92629906e-01  4.13488246e-01
  4.13488246e-01  4.58783763e-01  4.58783763e-01  4.84852963e-01
  5.85816831e-01  8.64962926e-01  8.64962926e-01  8.68939887e-01
  8.78659218e-01  8.78659218e-01  9.06785097e-01  9.06785097e-01
  9.17090464e-01  1.03580933e+00  1.03580933e+00  1.03684307e+00
  1.03684307e+00  1.04718928e+00  1.04718928e+00  1.05344472e+00
  1.05344472e+00  1.08663306e+00  1.12405572e+00  1.12405572e+00
  1.14991276e+00  1.20404815e+00  1.20404815e+00  1.21356296e+00
  1.21356296e+00  1.45514261e+00  1.45514261e+00  1.81703989e+00
  1.95314032e+00  2.21275900e+00  2.21275900e+00  2.30176738e+00
  2.62757402e+00  2.62757402e+00  2.90929442e+00  3.72866685e+00
  3.72866685e+00  4.19260629e+00  4.96892891e+00  4.96892891e+00
  4.98004181e+00  4.98004181e+00  5.01525801e+00  5.03055015e+00
  5.03055015e+00  6.02247446e+00  6.02247446e+00  6.11604099e+00
  6.40168359e+00  6.40168359e+00  7.10726583e+00  1.14374509e+01
  1.14374509e+01  1.20479551e+01  1.24740719e+01  1.24740719e+01
  1.24784581e+01  1.24819927e+01  1.24819927e+01  1.24884103e+01
  1.24884103e+01  1.24931626e+01  1.24931626e+01  1.62040240e+01
  1.62040240e+01  1.62063159e+01  1.62063159e+01  1.62199128e+01
  1.62322040e+01  1.62322040e+01  1.69528556e+01  1.69528556e+01
  1.70570703e+01  1.72432557e+01  1.72432557e+01  3.44944668e+01]
E1 = -46.6637759152796  E_coul = 20.049515658505854
cycle= 2 E= -24.2456686099677  delta_E= -0.0403  |g|= 0.519  |ddm|= 1.09
    CPU time for cycle= 2     75.79 sec, wall time      0.64 sec
  HOMO = -0.467760794931286  LUMO = -0.00779705326187722
  mo_energy =
[-1.39160623e+00 -4.90108141e-01 -4.67760795e-01 -4.67760795e-01
 -7.79705326e-03  3.94588102e-02  3.94588102e-02  6.09159613e-02
  9.01217611e-02  9.01217611e-02  9.37936307e-02  1.05404626e-01
  1.05404626e-01  1.19668005e-01  1.55049055e-01  1.55049055e-01
  2.11581595e-01  3.10069158e-01  3.10069158e-01  3.31170719e-01
  3.31170719e-01  3.40842274e-01  3.72105794e-01  3.87321418e-01
  3.87321418e-01  3.94512718e-01  3.94512718e-01  4.10788779e-01
  4.10788779e-01  4.47572802e-01  4.47572802e-01  4.72237666e-01
  5.68515975e-01  8.53678923e-01  8.66615598e-01  8.66615598e-01
  8.81018324e-01  8.81018324e-01  8.98561748e-01  8.98561748e-01
  8.99611277e-01  1.02568186e+00  1.02568186e+00  1.03038241e+00
  1.03038241e+00  1.04012407e+00  1.04012407e+00  1.04744443e+00
  1.04744443e+00  1.06662838e+00  1.10830761e+00  1.10830761e+00
  1.14154036e+00  1.20392541e+00  1.20392541e+00  1.20644136e+00
  1.20644136e+00  1.42155219e+00  1.42155219e+00  1.77093082e+00
  1.88301158e+00  2.13488906e+00  2.13488906e+00  2.22537911e+00
  2.54306423e+00  2.54306423e+00  2.87724778e+00  3.57334513e+00
  3.57334513e+00  4.04531263e+00  4.84891884e+00  4.84891884e+00
  4.85935164e+00  4.85935164e+00  4.89637867e+00  4.90973942e+00
  4.90973942e+00  5.83279975e+00  5.83279975e+00  5.92701758e+00
  6.21544828e+00  6.21544828e+00  6.88843991e+00  1.11354486e+01
  1.11354486e+01  1.17486879e+01  1.22814629e+01  1.22814629e+01
  1.22855613e+01  1.22889797e+01  1.22889797e+01  1.22945894e+01
  1.22945894e+01  1.22981105e+01  1.22981105e+01  1.59244045e+01
  1.59244045e+01  1.59282692e+01  1.59282692e+01  1.59425504e+01
  1.59534638e+01  1.59534638e+01  1.66311175e+01  1.66311175e+01
  1.67372423e+01  1.69246330e+01  1.69246330e+01  3.40692195e+01]
E1 = -47.659534391048474  E_coul = 21.00947163221381
cycle= 3 E= -24.2814711120286  delta_E= -0.0358  |g|= 0.0125  |ddm|= 0.45
    CPU time for cycle= 3     66.26 sec, wall time      0.52 sec
  HOMO = -0.47229978687971  LUMO = -0.00704616235924092
  mo_energy =
[-1.39579422e+00 -4.95972552e-01 -4.72299787e-01 -4.72299787e-01
 -7.04616236e-03  3.99841691e-02  3.99841691e-02  6.11390251e-02
  9.03300019e-02  9.03300019e-02  9.45121182e-02  1.05394079e-01
  1.05394079e-01  1.19140984e-01  1.56147758e-01  1.56147758e-01
  2.12107660e-01  3.10872968e-01  3.10872968e-01  3.31931515e-01
  3.31931515e-01  3.41500358e-01  3.72934756e-01  3.88319683e-01
  3.88319683e-01  3.95177703e-01  3.95177703e-01  4.11043340e-01
  4.11043340e-01  4.48364938e-01  4.48364938e-01  4.72121933e-01
  5.69119974e-01  8.52955767e-01  8.68262935e-01  8.68262935e-01
  8.82734354e-01  8.82734354e-01  8.99869389e-01  8.99869389e-01
  8.99872765e-01  1.02464358e+00  1.02464358e+00  1.03093520e+00
  1.03093520e+00  1.04140452e+00  1.04140452e+00  1.04846073e+00
  1.04846073e+00  1.06813051e+00  1.10876113e+00  1.10876113e+00
  1.14181827e+00  1.20499112e+00  1.20499112e+00  1.20821198e+00
  1.20821198e+00  1.42241832e+00  1.42241832e+00  1.77266112e+00
  1.88129025e+00  2.13238696e+00  2.13238696e+00  2.22258547e+00
  2.54029689e+00  2.54029689e+00  2.87833609e+00  3.57105214e+00
  3.57105214e+00  4.04384953e+00  4.84536266e+00  4.84536266e+00
  4.85493203e+00  4.85493203e+00  4.89301759e+00  4.90594236e+00
  4.90594236e+00  5.82860185e+00  5.82860185e+00  5.92329019e+00
  6.21161769e+00  6.21161769e+00  6.88463020e+00  1.11330441e+01
  1.11330441e+01  1.17469110e+01  1.22765043e+01  1.22765043e+01
  1.22806911e+01  1.22838414e+01  1.22838414e+01  1.22891159e+01
  1.22891159e+01  1.22921320e+01  1.22921320e+01  1.59193751e+01
  1.59193751e+01  1.59241550e+01  1.59241550e+01  1.59385610e+01
  1.59490184e+01  1.59490184e+01  1.66276001e+01  1.66276001e+01
  1.67345081e+01  1.69217257e+01  1.69217257e+01  3.40692061e+01]
E1 = -47.632879281482346  E_coul = 20.982731540336285
cycle= 4 E= -24.28155609434  delta_E= -8.5e-05  |g|= 0.00266  |ddm|= 0.0331
    CPU time for cycle= 4     62.22 sec, wall time      0.49 sec
  HOMO = -0.471204582874483  LUMO = -0.00699576356423041
  mo_energy =
[-1.39539968e+00 -4.95867383e-01 -4.71204583e-01 -4.71204583e-01
 -6.99576356e-03  4.00070963e-02  4.00070963e-02  6.11356492e-02
  9.03479195e-02  9.03479195e-02  9.45605023e-02  1.05361701e-01
  1.05361701e-01  1.19043658e-01  1.56150319e-01  1.56150319e-01
  2.12052763e-01  3.10919731e-01  3.10919731e-01  3.31955811e-01
  3.31955811e-01  3.41544739e-01  3.72957266e-01  3.88310458e-01
  3.88310458e-01  3.95225719e-01  3.95225719e-01  4.11005331e-01
  4.11005331e-01  4.48244401e-01  4.48244401e-01  4.71926819e-01
  5.69001707e-01  8.52858904e-01  8.68265338e-01  8.68265338e-01
  8.82755817e-01  8.82755817e-01  8.99771880e-01  8.99830331e-01
  8.99830331e-01  1.02450942e+00  1.02450942e+00  1.03094149e+00
  1.03094149e+00  1.04147171e+00  1.04147171e+00  1.04848237e+00
  1.04848237e+00  1.06800396e+00  1.10878410e+00  1.10878410e+00
  1.14182351e+00  1.20491938e+00  1.20491938e+00  1.20823173e+00
  1.20823173e+00  1.42233296e+00  1.42233296e+00  1.77242785e+00
  1.88117068e+00  2.13228804e+00  2.13228804e+00  2.22254042e+00
  2.54020974e+00  2.54020974e+00  2.87827047e+00  3.57118533e+00
  3.57118533e+00  4.04380956e+00  4.84521531e+00  4.84521531e+00
  4.85472290e+00  4.85472290e+00  4.89290528e+00  4.90576751e+00
  4.90576751e+00  5.82882220e+00  5.82882220e+00  5.92356816e+00
  6.21189488e+00  6.21189488e+00  6.88507055e+00  1.11338247e+01
  1.11338247e+01  1.17477533e+01  1.22768224e+01  1.22768224e+01
  1.22810254e+01  1.22841054e+01  1.22841054e+01  1.22892930e+01
  1.22892930e+01  1.22921815e+01  1.22921815e+01  1.59199160e+01
  1.59199160e+01  1.59249434e+01  1.59249434e+01  1.59394082e+01
  1.59497058e+01  1.59497058e+01  1.66284758e+01  1.66284758e+01
  1.67356369e+01  1.69227952e+01  1.69227952e+01  3.40705941e+01]
E1 = -47.632322154367934  E_coul = 20.982170546893855
cycle= 5 E= -24.281559960668  delta_E= -3.87e-06  |g|= 0.000759  |ddm|= 0.00625
    CPU time for cycle= 5     70.92 sec, wall time      0.56 sec
  HOMO = -0.471153972505374  LUMO = -0.0069942213194757
  mo_energy =
[-1.39545424e+00 -4.96146435e-01 -4.71153973e-01 -4.71153973e-01
 -6.99422132e-03  4.00125685e-02  4.00125685e-02  6.11380051e-02
  9.03503574e-02  9.03503574e-02  9.45613108e-02  1.05364628e-01
  1.05364628e-01  1.19035507e-01  1.56162976e-01  1.56162976e-01
  2.12057920e-01  3.10922786e-01  3.10922786e-01  3.31965210e-01
  3.31965210e-01  3.41546790e-01  3.72961178e-01  3.88320567e-01
  3.88320567e-01  3.95231678e-01  3.95231678e-01  4.11014048e-01
  4.11014048e-01  4.48273617e-01  4.48273617e-01  4.71912186e-01
  5.69026208e-01  8.52873490e-01  8.68268021e-01  8.68268021e-01
  8.82757285e-01  8.82757285e-01  8.99754013e-01  8.99857147e-01
  8.99857147e-01  1.02454294e+00  1.02454294e+00  1.03095542e+00
  1.03095542e+00  1.04147767e+00  1.04147767e+00  1.04849459e+00
  1.04849459e+00  1.06800679e+00  1.10879452e+00  1.10879452e+00
  1.14182063e+00  1.20493907e+00  1.20493907e+00  1.20823720e+00
  1.20823720e+00  1.42237484e+00  1.42237484e+00  1.77244164e+00
  1.88120041e+00  2.13232670e+00  2.13232670e+00  2.22252683e+00
  2.54023186e+00  2.54023186e+00  2.87826335e+00  3.57121101e+00
  3.57121101e+00  4.04378935e+00  4.84531107e+00  4.84531107e+00
  4.85477941e+00  4.85477941e+00  4.89300143e+00  4.90584871e+00
  4.90584871e+00  5.82881348e+00  5.82881348e+00  5.92356599e+00
  6.21189336e+00  6.21189336e+00  6.88501024e+00  1.11336468e+01
  1.11336468e+01  1.17476139e+01  1.22769107e+01  1.22769107e+01
  1.22811202e+01  1.22841744e+01  1.22841744e+01  1.22893291e+01
  1.22893291e+01  1.22921718e+01  1.22921718e+01  1.59197692e+01
  1.59197692e+01  1.59249300e+01  1.59249300e+01  1.59394085e+01
  1.59496433e+01  1.59496433e+01  1.66282573e+01  1.66282573e+01
  1.67355214e+01  1.69226504e+01  1.69226504e+01  3.40702143e+01]
E1 = -47.632644329909375  E_coul = 20.982492328597893
cycle= 6 E= -24.2815603545054  delta_E= -3.94e-07  |g|= 0.000158  |ddm|= 0.00251
    CPU time for cycle= 6     61.78 sec, wall time      0.49 sec
  HOMO = -0.471136619879617  LUMO = -0.00700079913924606
  mo_energy =
[-1.39545066e+00 -4.96194593e-01 -4.71136620e-01 -4.71136620e-01
 -7.00079914e-03  4.00097216e-02  4.00097216e-02  6.11364760e-02
  9.03490878e-02  9.03490878e-02  9.45549167e-02  1.05366226e-01
  1.05366226e-01  1.19038504e-01  1.56157981e-01  1.56157981e-01
  2.12053556e-01  3.10916116e-01  3.10916116e-01  3.31961358e-01
  3.31961358e-01  3.41540833e-01  3.72953573e-01  3.88312998e-01
  3.88312998e-01  3.95227134e-01  3.95227134e-01  4.11011951e-01
  4.11011951e-01  4.48277388e-01  4.48277388e-01  4.71910842e-01
  5.69021963e-01  8.52872399e-01  8.68253371e-01  8.68253371e-01
  8.82741765e-01  8.82741765e-01  8.99745794e-01  8.99846247e-01
  8.99846247e-01  1.02455170e+00  1.02455170e+00  1.03094764e+00
  1.03094764e+00  1.04146768e+00  1.04146768e+00  1.04848679e+00
  1.04848679e+00  1.06799056e+00  1.10879063e+00  1.10879063e+00
  1.14181503e+00  1.20492624e+00  1.20492624e+00  1.20822237e+00
  1.20822237e+00  1.42236801e+00  1.42236801e+00  1.77241938e+00
  1.88119458e+00  2.13232460e+00  2.13232460e+00  2.22253265e+00
  2.54023257e+00  2.54023257e+00  2.87824343e+00  3.57121612e+00
  3.57121612e+00  4.04377474e+00  4.84530732e+00  4.84530732e+00
  4.85477261e+00  4.85477261e+00  4.89299849e+00  4.90584334e+00
  4.90584334e+00  5.82881371e+00  5.82881371e+00  5.92356694e+00
  6.21189488e+00  6.21189488e+00  6.88501894e+00  1.11336610e+01
  1.11336610e+01  1.17476322e+01  1.22769112e+01  1.22769112e+01
  1.22811219e+01  1.22841708e+01  1.22841708e+01  1.22893190e+01
  1.22893190e+01  1.22921532e+01  1.22921532e+01  1.59197544e+01
  1.59197544e+01  1.59249405e+01  1.59249405e+01  1.59394225e+01
  1.59496440e+01  1.59496440e+01  1.66282583e+01  1.66282583e+01
  1.67355437e+01  1.69226666e+01  1.69226666e+01  3.40702565e+01]
E1 = -47.632502535572556  E_coul = 20.982350520777413
cycle= 7 E= -24.2815603679891  delta_E= -1.35e-08  |g|= 2.09e-05  |ddm|= 0.00047
    CPU time for cycle= 7     77.19 sec, wall time      0.60 sec
  HOMO = -0.471129790789327  LUMO = -0.00700142722750371
  mo_energy =
[-1.39544596e+00 -4.96193889e-01 -4.71129791e-01 -4.71129791e-01
 -7.00142723e-03  4.00093160e-02  4.00093160e-02  6.11362531e-02
  9.03489705e-02  9.03489705e-02  9.45543196e-02  1.05366238e-01
  1.05366238e-01  1.19038595e-01  1.56157076e-01  1.56157076e-01
  2.12052801e-01  3.10915474e-01  3.10915474e-01  3.31960780e-01
  3.31960780e-01  3.41540194e-01  3.72952624e-01  3.88311924e-01
  3.88311924e-01  3.95226672e-01  3.95226672e-01  4.11011419e-01
  4.11011419e-01  4.48276716e-01  4.48276716e-01  4.71910066e-01
  5.69020799e-01  8.52871128e-01  8.68251861e-01  8.68251861e-01
  8.82740206e-01  8.82740206e-01  8.99744432e-01  8.99844735e-01
  8.99844735e-01  1.02455102e+00  1.02455102e+00  1.03094650e+00
  1.03094650e+00  1.04146667e+00  1.04146667e+00  1.04848575e+00
  1.04848575e+00  1.06798880e+00  1.10878983e+00  1.10878983e+00
  1.14181408e+00  1.20492468e+00  1.20492468e+00  1.20822076e+00
  1.20822076e+00  1.42236677e+00  1.42236677e+00  1.77241765e+00
  1.88119355e+00  2.13232356e+00  2.13232356e+00  2.22253165e+00
  2.54023181e+00  2.54023181e+00  2.87824112e+00  3.57121771e+00
  3.57121771e+00  4.04377563e+00  4.84530684e+00  4.84530684e+00
  4.85477130e+00  4.85477130e+00  4.89299802e+00  4.90584271e+00
  4.90584271e+00  5.82881517e+00  5.82881517e+00  5.92356857e+00
  6.21189628e+00  6.21189628e+00  6.88502216e+00  1.11336684e+01
  1.11336684e+01  1.17476403e+01  1.22769131e+01  1.22769131e+01
  1.22811239e+01  1.22841724e+01  1.22841724e+01  1.22893201e+01
  1.22893201e+01  1.22921537e+01  1.22921537e+01  1.59197593e+01
  1.59197593e+01  1.59249482e+01  1.59249482e+01  1.59394301e+01
  1.59496508e+01  1.59496508e+01  1.66282652e+01  1.66282652e+01
  1.67355522e+01  1.69226743e+01  1.69226743e+01  3.40702699e+01]
E1 = -47.63248743586625  E_coul = 20.982335420860398
cycle= 8 E= -24.2815603681998  delta_E= -2.11e-10  |g|= 4.85e-06  |ddm|= 8.81e-05
    CPU time for cycle= 8     56.31 sec, wall time      0.44 sec
  HOMO = -0.471131991850796  LUMO = -0.00700142276783607
  mo_energy =
[-1.39544832e+00 -4.96195997e-01 -4.71131992e-01 -4.71131992e-01
 -7.00142277e-03  4.00093255e-02  4.00093255e-02  6.11362537e-02
  9.03489714e-02  9.03489714e-02  9.45543192e-02  1.05366250e-01
  1.05366250e-01  1.19038610e-01  1.56157112e-01  1.56157112e-01
  2.12052771e-01  3.10915477e-01  3.10915477e-01  3.31960786e-01
  3.31960786e-01  3.41540184e-01  3.72952616e-01  3.88311909e-01
  3.88311909e-01  3.95226673e-01  3.95226673e-01  4.11011402e-01
  4.11011402e-01  4.48276713e-01  4.48276713e-01  4.71910059e-01
  5.69020677e-01  8.52871037e-01  8.68251870e-01  8.68251870e-01
  8.82740212e-01  8.82740212e-01  8.99744346e-01  8.99844660e-01
  8.99844660e-01  1.02455081e+00  1.02455081e+00  1.03094646e+00
  1.03094646e+00  1.04146668e+00  1.04146668e+00  1.04848575e+00
  1.04848575e+00  1.06798865e+00  1.10878977e+00  1.10878977e+00
  1.14181404e+00  1.20492461e+00  1.20492461e+00  1.20822078e+00
  1.20822078e+00  1.42236656e+00  1.42236656e+00  1.77241726e+00
  1.88119309e+00  2.13232310e+00  2.13232310e+00  2.22253109e+00
  2.54023127e+00  2.54023127e+00  2.87824095e+00  3.57121618e+00
  3.57121618e+00  4.04377414e+00  4.84530606e+00  4.84530606e+00
  4.85477055e+00  4.85477055e+00  4.89299724e+00  4.90584192e+00
  4.90584192e+00  5.82881334e+00  5.82881334e+00  5.92356672e+00
  6.21189449e+00  6.21189449e+00  6.88501970e+00  1.11336643e+01
  1.11336643e+01  1.17476362e+01  1.22769115e+01  1.22769115e+01
  1.22811224e+01  1.22841708e+01  1.22841708e+01  1.22893186e+01
  1.22893186e+01  1.22921522e+01  1.22921522e+01  1.59197561e+01
  1.59197561e+01  1.59249450e+01  1.59249450e+01  1.59394270e+01
  1.59496476e+01  1.59496476e+01  1.66282610e+01  1.66282610e+01
  1.67355480e+01  1.69226702e+01  1.69226702e+01  3.40702629e+01]
E1 = -47.63249715164126  E_coul = 20.98234513663031
Extra cycle  E= -24.2815603682049  delta_E= -5.09e-12  |g|= 2.46e-06  |ddm|= 2.2e-05
    CPU time for scf_cycle    667.25 sec, wall time      5.47 sec
    CPU time for SCF    667.27 sec, wall time      5.47 sec
converged SCF energy = -24.2815603682049
