#INFO: **** input file is /home/nkousuke/lustre/toBeSync/turboRVB/05turbo-genius-development/turbogenius_paper/04data/sanity_checks/03pyscf_HF_turbo_VMC_via_trexio/00open_boundary/results/CH2_singlet/pyscf-HF-workflow/run.py ****

from pyscf_wrapper import Pyscf_wrapper

# input variables
pyscf_chkfile="pyscf.chk"
structure_file="CH2_singlet.xyz"

# input variables
omp_num_threads=128
charge=0
spin=0
basis="ccecp-ccpvqz"
ecp="ccecp"
scf_method="HF"
dft_xc="NA"
solver_newton=False
MP2_flag=False
CCSD_flag=False
pyscf_output="out.pyscf"
twist_average=False
exp_to_discard=0.0
kpt=[0.0, 0.0, 0.0]
kpt_grid=[1, 1, 1]
smearing_method="fermi"
smearing_sigma=0.0

pyscf_calc=Pyscf_wrapper(
                        structure_file=structure_file,
                        chkfile=pyscf_chkfile,
                        )

pyscf_calc.run_pyscf(
                  omp_num_threads=omp_num_threads,
                  charge=charge,
                  spin=spin,
                  basis=basis,
                  ecp=ecp,
                  scf_method=scf_method,
                  dft_xc=dft_xc,
                  solver_newton=solver_newton,
                  MP2_flag=MP2_flag,
                  CCSD_flag=CCSD_flag,
                  pyscf_output=pyscf_output,
                  twist_average=twist_average,
                  exp_to_discard=exp_to_discard,
                  kpt=kpt,
                  kpt_grid=kpt_grid,
                  smearing_method=smearing_method,
                  smearing_sigma=smearing_sigma
                  )
                #INFO: ******************** input file end ********************


System: uname_result(system='Linux', node='spcc-200', release='5.4.0-66-generic', version='#74-Ubuntu SMP Wed Jan 27 22:54:38 UTC 2021', machine='x86_64', processor='x86_64')  Threads 128
Python 3.7.3 (default, Mar 27 2019, 22:11:17) 
[GCC 7.3.0]
numpy 1.20.1  scipy 1.7.3
Date: Mon Dec 19 18:06:21 2022
PySCF version 2.0.1
PySCF path  /home/nkousuke/application/anaconda3/lib/python3.7/site-packages/pyscf

[CONFIG] conf_file /home/nkousuke/.pyscf_conf.py
[INPUT] verbose = 5
[INPUT] max_memory = 507530.4140625 
[INPUT] num. atoms = 3
[INPUT] num. electrons = 6
[INPUT] charge = 0
[INPUT] spin (= nelec alpha-beta = 2S) = 0
[INPUT] symmetry False subgroup None
[INPUT] Mole.unit = A
[INPUT]  1 C      0.000000000000   0.000000000000   0.173480000000 AA    0.000000000000   0.000000000000   0.327829688090 Bohr
[INPUT]  2 H      0.000000000000   0.861500000000  -0.520430000000 AA    0.000000000000   1.627999056313  -0.983470167007 Bohr
[INPUT]  3 H      0.000000000000  -0.861500000000  -0.520430000000 AA    0.000000000000  -1.627999056313  -0.983470167007 Bohr
[INPUT] ---------------- BASIS SET ---------------- 
[INPUT] l, kappa, [nprim/nctr], expnt,             c_1 c_2 ...
[INPUT] H
[INPUT] 0    0    [8    /1   ]  23.843185         0.0041149
                                10.212443         0.0104644
                                4.374164          0.0280111
                                1.873529          0.0758862
                                0.802465          0.1821062
                                0.343709          0.3485214
                                0.147217          0.3782313
                                0.063055          0.1164241
[INPUT] 0    0    [1    /1   ]  0.081856             1
[INPUT] 0    0    [1    /1   ]  0.233254             1
[INPUT] 0    0    [1    /1   ]  0.664673             1
[INPUT] 1    0    [1    /1   ]  0.284469             1
[INPUT] 1    0    [1    /1   ]  0.847159             1
[INPUT] 1    0    [1    /1   ]  2.522868             1
[INPUT] 2    0    [1    /1   ]  0.665279             1
[INPUT] 2    0    [1    /1   ]  2.048739             1
[INPUT] 3    0    [1    /1   ]  1.42146              1
[INPUT] C
[INPUT] 0    0    [9    /1   ]  13.073594         0.0051583
                                6.541187          0.0603424
                                4.573411          -0.1978471
                                1.637494          -0.081034
                                0.819297          0.2321726
                                0.409924          0.2914643
                                0.2313            0.4336405
                                0.102619          0.213194
                                0.051344          0.0049848
[INPUT] 0    0    [1    /1   ]  0.846879             1
[INPUT] 0    0    [1    /1   ]  0.269659             1
[INPUT] 0    0    [1    /1   ]  0.109576             1
[INPUT] 1    0    [9    /1   ]  9.934169          0.0209076
                                3.886955          0.0572698
                                1.871016          0.1122682
                                0.935757          0.2130082
                                0.468003          0.2835815
                                0.239473          0.3011207
                                0.117063          0.2016934
                                0.058547          0.0453575
                                0.029281          0.0029775
[INPUT] 1    0    [1    /1   ]  0.804681             1
[INPUT] 1    0    [1    /1   ]  0.313254             1
[INPUT] 1    0    [1    /1   ]  0.105389             1
[INPUT] 2    0    [1    /1   ]  2.01376              1
[INPUT] 2    0    [1    /1   ]  0.684884             1
[INPUT] 2    0    [1    /1   ]  0.240171             1
[INPUT] 3    0    [1    /1   ]  0.457302             1
[INPUT] 3    0    [1    /1   ]  1.32493              1
[INPUT] 4    0    [1    /1   ]  1.03418              1

nuclear repulsion = 4.13409340866236
number of shells = 34
number of NR pGTOs = 160
number of NR cGTOs = 114
basis = ccecp-ccpvqz
ecp = ccecp
CPU time:         4.76


******** <class 'pyscf.scf.hf.RHF'> ********
method = RHF
initial guess = minao
damping factor = 0
level_shift factor = 0
DIIS = <class 'pyscf.scf.diis.CDIIS'>
diis_start_cycle = 1
diis_space = 8
SCF conv_tol = 1e-09
SCF conv_tol_grad = None
SCF max_cycles = 200
direct_scf = True
direct_scf_tol = 1e-13
chkfile to save SCF result = pyscf.chk
max_memory 507530 MB (current use 106 MB)
Set gradient conv threshold to 3.16228e-05
E1 = -17.14304145665991  E_coul = 6.859404090277284
init E= -6.14954395772027
cond(S) = 28939.422164335825
    CPU time for initialize scf    110.12 sec, wall time      1.11 sec
  HOMO = -0.243685861824795  LUMO = -0.128435032539398
  mo_energy =
[-1.05676044 -0.44474858 -0.24368586 -0.12843503  0.10262146  0.17092937
  0.27161547  0.31482532  0.36104082  0.41126216  0.44307646  0.47057883
  0.55618435  0.57282885  0.60056633  0.81253844  0.83023532  0.8404509
  0.89700732  0.91453867  0.97132751  1.09335726  1.09477054  1.28852011
  1.31966424  1.607345    1.70690783  1.72249723  1.82504161  1.89489977
  1.91985946  1.95006408  1.98394517  2.01533131  2.0393584   2.05737281
  2.10169132  2.11028426  2.24391305  2.37092989  2.40957692  2.43235177
  2.55056469  2.59006481  2.60706187  2.65443475  2.74134817  2.76701168
  2.92815556  3.29470723  3.35019469  3.46396156  3.48507713  3.5311641
  3.62541067  3.80826968  3.83744279  5.11947335  5.1913855   5.30998309
  5.37981662  5.39815499  5.42551683  5.50987516  5.63656156  5.63665084
  5.66594831  5.76127035  5.83284752  5.8421034   5.86366268  5.86991487
  6.02563955  6.22231565  6.23993236  6.26831547  6.36649413  6.44946547
  6.51938232  6.56450391  6.7098283   6.77071635  7.12764344  7.2520363
  7.2962852   7.40016536  7.64757035  7.68468898  7.7912007   7.80184038
  7.95110301  7.96780126  7.97971813  7.99821549  8.08172835  8.27708449
  8.32333626  8.33730355  8.5152453   8.59650513  8.66025245  8.8262445
  8.91004283  8.97931544  9.32500299 10.09670097 10.11029981 10.18844414
 10.24264119 10.43048618 10.52924439 10.57209709 12.598443   19.47438394]
E1 = -17.4097540530245  E_coul = 6.7657086251518
cycle= 1 E= -6.50995201921034  delta_E= -0.36  |g|= 0.187  |ddm|=  2.6
    CPU time for cycle= 1     26.60 sec, wall time      0.21 sec
  HOMO = -0.415793823238847  LUMO = 0.0150050303617524
  mo_energy =
[-9.36031548e-01 -5.93373252e-01 -4.15793823e-01  1.50050304e-02
  1.06550134e-01  1.66909497e-01  2.84998597e-01  3.20226106e-01
  3.81622674e-01  4.14784237e-01  4.63930076e-01  4.95207886e-01
  5.54904470e-01  5.63954614e-01  5.98676653e-01  8.15262395e-01
  8.29008963e-01  8.54175438e-01  8.93390898e-01  9.07834747e-01
  9.91380598e-01  1.08309093e+00  1.08411424e+00  1.29665744e+00
  1.32997961e+00  1.59953340e+00  1.71355328e+00  1.73830701e+00
  1.84317607e+00  1.89418617e+00  1.91144044e+00  1.94370089e+00
  2.00490166e+00  2.03608456e+00  2.07660020e+00  2.07963118e+00
  2.11959636e+00  2.12359007e+00  2.24860627e+00  2.36329028e+00
  2.41447950e+00  2.42773279e+00  2.55112995e+00  2.58022150e+00
  2.59388785e+00  2.63860504e+00  2.74094001e+00  2.77411358e+00
  2.93679488e+00  3.29786055e+00  3.36719659e+00  3.45549682e+00
  3.49115369e+00  3.52457819e+00  3.62453297e+00  3.83422475e+00
  3.85501522e+00  5.11529619e+00  5.18767897e+00  5.32025205e+00
  5.38496004e+00  5.39671732e+00  5.42809230e+00  5.56290628e+00
  5.64923768e+00  5.66320546e+00  5.67632247e+00  5.76056281e+00
  5.84933173e+00  5.86260885e+00  5.87376966e+00  5.93048870e+00
  6.04137087e+00  6.22795596e+00  6.25423460e+00  6.29180199e+00
  6.36339994e+00  6.46024338e+00  6.54906535e+00  6.56656205e+00
  6.75266087e+00  6.77865435e+00  7.13013149e+00  7.25495203e+00
  7.33299273e+00  7.40648627e+00  7.65726001e+00  7.68279010e+00
  7.78895505e+00  7.80066115e+00  7.94793169e+00  7.96016082e+00
  7.98197747e+00  7.99271177e+00  8.09600467e+00  8.28559422e+00
  8.33459817e+00  8.34374294e+00  8.52754467e+00  8.61080256e+00
  8.69177061e+00  8.85910953e+00  8.91702799e+00  8.98701635e+00
  9.34140812e+00  1.01131419e+01  1.01247817e+01  1.01904983e+01
  1.02703551e+01  1.04462925e+01  1.05599402e+01  1.05997998e+01
  1.26247408e+01  1.94770287e+01]
E1 = -17.613527536475186  E_coul = 6.95699824374117
cycle= 2 E= -6.52243588407166  delta_E= -0.0125  |g|= 0.0465  |ddm|= 0.398
    CPU time for cycle= 2     61.91 sec, wall time      0.52 sec
  HOMO = -0.391010040433417  LUMO = 0.0443130236537742
  mo_energy =
[-0.89737867 -0.56499271 -0.39101004  0.04431302  0.11255479  0.17146228
  0.29122218  0.32697228  0.40378935  0.4258539   0.48369     0.51488682
  0.57158441  0.57900149  0.61418316  0.82644077  0.83694063  0.86384292
  0.90165856  0.91790924  1.00139361  1.09507069  1.09511228  1.31903309
  1.34972622  1.63789736  1.7357812   1.76383499  1.8721779   1.91593132
  1.94141043  1.9692561   2.02684104  2.06371623  2.09802174  2.10440087
  2.14282944  2.15226584  2.28079111  2.37943316  2.42782294  2.44455847
  2.57021712  2.60002369  2.60805978  2.65233889  2.75510511  2.78652285
  2.94907123  3.31916004  3.39265184  3.48101194  3.51695314  3.55055958
  3.65830796  3.86609266  3.88500178  5.15812564  5.23226733  5.35884637
  5.42432622  5.45361366  5.47648962  5.60479694  5.70013048  5.71767881
  5.72384118  5.80599499  5.88824529  5.90409613  5.91776329  5.97360936
  6.08604433  6.2554316   6.30687429  6.3354463   6.39006154  6.48637269
  6.58866626  6.59431409  6.79540579  6.81788904  7.18601163  7.3085331
  7.38531184  7.43891217  7.68267377  7.70790144  7.82336764  7.82830546
  7.96850022  7.98641125  8.00508357  8.01875563  8.12851224  8.32041108
  8.36394101  8.37002366  8.55576139  8.65011779  8.74180037  8.89622709
  8.95037325  9.02029376  9.37331699 10.1536524  10.16367207 10.23037203
 10.31582178 10.48919463 10.60671683 10.64689383 12.6761953  19.56044145]
E1 = -17.58708704401668  E_coul = 6.9297616338227845
cycle= 3 E= -6.52323200153154  delta_E= -0.000796  |g|= 0.0126  |ddm|= 0.102
    CPU time for cycle= 3     45.05 sec, wall time      0.35 sec
  HOMO = -0.395551147896366  LUMO = 0.0417316240561764
  mo_energy =
[-0.89896896 -0.56793838 -0.39555115  0.04173162  0.11273756  0.17141658
  0.29093869  0.3265434   0.40153139  0.42510854  0.48376739  0.51394932
  0.57127447  0.5787228   0.61338426  0.82565077  0.83739573  0.86289738
  0.90137313  0.91755585  1.00052988  1.09454441  1.0948182   1.319014
  1.3491205   1.63269781  1.73491369  1.760855    1.86950863  1.91402742
  1.93998046  1.96746328  2.02548369  2.06148036  2.09560311  2.10183495
  2.13981261  2.14862033  2.27767438  2.38029876  2.42795274  2.44546739
  2.56990785  2.6000781   2.60919426  2.65335761  2.7551979   2.78711446
  2.94966441  3.31932436  3.39156297  3.48007863  3.51572486  3.54916098
  3.65742144  3.8642235   3.88327619  5.15548803  5.22963517  5.35612441
  5.42048336  5.44487602  5.47220796  5.60025856  5.69566174  5.71043169
  5.71840471  5.79939847  5.88256707  5.89672863  5.91007503  5.96848229
  6.08041238  6.25676671  6.30297333  6.33408756  6.39172187  6.48629945
  6.58535359  6.59451957  6.79281896  6.81464938  7.1785436   7.30090536
  7.37903768  7.4386812   7.6823997   7.70937076  7.8238363   7.82931652
  7.97071316  7.98804307  8.00753015  8.02000895  8.12770802  8.32243096
  8.36693238  8.37329451  8.55825729  8.65019405  8.73890106  8.89614482
  8.9530592   9.02276174  9.37575458 10.1527116  10.16389166 10.22972128
 10.31464466 10.4889128  10.60558348 10.64687781 12.6746164  19.54832545]
E1 = -17.595855052483337  E_coul = 6.938404689232233
cycle= 4 E= -6.52335695458875  delta_E= -0.000125  |g|= 0.00362  |ddm|= 0.0426
    CPU time for cycle= 4     51.83 sec, wall time      0.41 sec
  HOMO = -0.394370277557021  LUMO = 0.0426673847533728
  mo_energy =
[-0.89797494 -0.56743033 -0.39437028  0.04266738  0.11257072  0.17124157
  0.29133746  0.32680075  0.40246889  0.42564909  0.48389366  0.51444498
  0.57141549  0.57881294  0.61374999  0.82606133  0.83717327  0.86340569
  0.90157085  0.91766571  1.00107824  1.09452314  1.09460204  1.31891069
  1.34933605  1.63413109  1.73545751  1.76207181  1.8704203   1.91477664
  1.94042938  1.96809055  2.02622339  2.06244785  2.09672629  2.10289312
  2.14102811  2.14988809  2.27868226  2.37996225  2.42808144  2.44499883
  2.56994021  2.5998608   2.60870418  2.65290389  2.75523752  2.78688937
  2.94954474  3.31927814  3.39195595  3.48034473  3.51611186  3.54954781
  3.65773422  3.86495772  3.88383307  5.15639117  5.2305259   5.35703565
  5.42162571  5.44708431  5.47355463  5.60181488  5.69703159  5.71254498
  5.71988631  5.80122624  5.88422663  5.89878611  5.91205416  5.97029195
  6.08205729  6.25649614  6.30419731  6.33474349  6.39132866  6.48644972
  6.58640182  6.59456646  6.79387251  6.81555841  7.18049052  7.30271628
  7.38084893  7.43887376  7.68252687  7.70896469  7.82385247  7.82913724
  7.97010314  7.98764466  8.00686413  8.01962286  8.12792142  8.3222168
  8.36649735  8.37268296  8.55790495  8.65027431  8.74003681  8.89663154
  8.95266637  9.02246823  9.3753399  10.15312616 10.16420252 10.23008643
 10.31539197 10.48918948 10.60615598 10.64735002 12.67539933 19.55152439]
E1 = -17.594580953311937  E_coul = 6.937117891197939
cycle= 5 E= -6.52336965345164  delta_E= -1.27e-05  |g|= 0.000913  |ddm|= 0.0149
    CPU time for cycle= 5     47.06 sec, wall time      0.37 sec
  HOMO = -0.3945859120221  LUMO = 0.0425490581062924
  mo_energy =
[-0.89804185 -0.5674602  -0.39458591  0.04254906  0.11251112  0.17120915
  0.29131355  0.32678038  0.40241892  0.42561284  0.48378692  0.51440205
  0.57135793  0.57872436  0.61370624  0.82600291  0.83710256  0.86336379
  0.90151436  0.91759874  1.00103787  1.09444479  1.09452973  1.31880913
  1.34924296  1.6339785   1.73540012  1.76195511  1.87030886  1.91466047
  1.94034365  1.9679884   2.02613798  2.06235275  2.09662636  2.10276245
  2.14088516  2.14975525  2.2785851   2.37987208  2.42798261  2.44490416
  2.56982655  2.59975768  2.60859211  2.65279091  2.75514163  2.78678734
  2.94943123  3.31921375  3.39182103  3.48024369  3.51598654  3.54940583
  3.65765536  3.86482223  3.88368935  5.15636069  5.23051301  5.3568518
  5.42138818  5.4468308   5.4734245   5.60157077  5.69687506  5.71237224
  5.71963563  5.80100436  5.88397323  5.8984917   5.91170849  5.97006546
  6.08183229  6.25638884  6.30405745  6.33465611  6.39125047  6.48628663
  6.58620945  6.59443856  6.79371527  6.81535851  7.18029536  7.30241168
  7.38063853  7.43874409  7.68235064  7.70882645  7.82378809  7.82903628
  7.96996972  7.98751572  8.00673199  8.01947781  8.12775969  8.32212625
  8.36638478  8.37258163  8.557773    8.65017203  8.73988623  8.89646308
  8.95257343  9.02235962  9.37525477 10.15297246 10.16406104 10.22995035
 10.31522823 10.48909331 10.60604675 10.6472428  12.67526923 19.55128235]
E1 = -17.59473669442317  E_coul = 6.937272584338697
cycle= 6 E= -6.52337070142211  delta_E= -1.05e-06  |g|= 0.000105  |ddm|= 0.00601
    CPU time for cycle= 6     83.93 sec, wall time      0.66 sec
  HOMO = -0.394603287711129  LUMO = 0.0425509965477704
  mo_energy =
[-0.89805246 -0.5674376  -0.39460329  0.042551    0.11250849  0.1712139
  0.29131432  0.32677719  0.4024191   0.42561107  0.4837827   0.51441018
  0.57135896  0.57872522  0.61370786  0.82600538  0.83710455  0.86336614
  0.9015154   0.91759925  1.00103525  1.09444858  1.09452786  1.31881035
  1.34924476  1.63397907  1.73540204  1.76195548  1.87030716  1.91466414
  1.94034771  1.96799113  2.02614324  2.06235244  2.09662687  2.1027645
  2.14088686  2.14975365  2.27858568  2.37987409  2.42798473  2.44490359
  2.56982803  2.59975736  2.60859306  2.65279204  2.75514262  2.78678684
  2.94943339  3.31921738  3.39181926  3.48024639  3.51598743  3.54940739
  3.65765735  3.86482224  3.88368908  5.15636746  5.23052037  5.35685303
  5.42138742  5.44682591  5.47342731  5.60156863  5.69687628  5.71236976
  5.71963383  5.80100619  5.88397369  5.89849182  5.91170534  5.97006395
  6.08183182  6.25639002  6.30405701  6.33465716  6.39125328  6.48628742
  6.58620982  6.59444028  6.79371329  6.81535836  7.18029627  7.30240615
  7.38063715  7.43874556  7.68235055  7.70882518  7.82379248  7.82903858
  7.96996916  7.98751573  8.00672945  8.01947656  8.12775669  8.32212738
  8.36638599  8.37258235  8.55777352  8.65017066  8.73988483  8.89646352
  8.95257444  9.02236091  9.37525506 10.15297212 10.16405973 10.22995187
 10.31522707 10.4890923  10.60604562 10.64724329 12.6752664  19.55127148]
E1 = -17.594752498289544  E_coul = 6.9372883794463736
cycle= 7 E= -6.52337071018081  delta_E= -8.76e-09  |g|= 1.49e-05  |ddm|= 0.000634
    CPU time for cycle= 7     95.39 sec, wall time      0.75 sec
  HOMO = -0.394603557190367  LUMO = 0.0425521887489879
  mo_energy =
[-0.89805156 -0.56743408 -0.39460356  0.04255219  0.11250872  0.17121519
  0.29131461  0.32677641  0.40241915  0.4256105   0.48378259  0.51441196
  0.5713599   0.57872554  0.6137085   0.82600578  0.83710557  0.86336677
  0.90151599  0.91759989  1.00103546  1.09444992  1.09452853  1.3188112
  1.34924584  1.63397981  1.73540257  1.76195603  1.87030829  1.91466478
  1.94034819  1.96799161  2.02614422  2.06235308  2.09662787  2.10276549
  2.14088782  2.14975445  2.27858627  2.37987521  2.42798618  2.44490466
  2.56982944  2.59975849  2.6085945   2.65279346  2.75514379  2.78678829
  2.94943501  3.31921856  3.39182039  3.48024739  3.51598847  3.5494083
  3.65765823  3.86482348  3.88369031  5.15636841  5.23052132  5.35685334
  5.42138769  5.4468281   5.47342786  5.60157026  5.69687716  5.71237193
  5.71963452  5.80100871  5.88397558  5.89849493  5.91170741  5.97006632
  6.08183335  6.25639093  6.30405803  6.33465821  6.39125416  6.486289
  6.58621157  6.59444153  6.79371463  6.81535999  7.18029874  7.3024078
  7.38063989  7.43874646  7.68235203  7.70882657  7.82379352  7.82903989
  7.96997086  7.98751701  8.00673067  8.01947792  8.12775824  8.32212788
  8.36638658  8.37258318  8.55777447  8.65017129  8.7398859   8.89646428
  8.95257477  9.02236126  9.37525568 10.15297283 10.16406061 10.22995267
 10.31522739 10.48909332 10.60604653 10.64724355 12.67526708 19.55127412]
E1 = -17.594754203413807  E_coul = 6.937290084392148
cycle= 8 E= -6.5233707103593  delta_E= -1.78e-10  |g|= 2.91e-06  |ddm|= 7.35e-05
    CPU time for cycle= 8     45.69 sec, wall time      0.37 sec
  HOMO = -0.394603104023496  LUMO = 0.0425529764479145
  mo_energy =
[-0.8980507  -0.56743322 -0.3946031   0.04255298  0.11250899  0.17121546
  0.29131486  0.32677653  0.40241978  0.42561077  0.48378313  0.51441269
  0.57136038  0.57872595  0.61370898  0.82600616  0.83710584  0.86336717
  0.9015163   0.91760024  1.0010358   1.09445035  1.09452888  1.31881182
  1.34924647  1.633981    1.73540318  1.76195687  1.87030922  1.91466547
  1.94034893  1.96799233  2.02614491  2.06235391  2.09662868  2.10276636
  2.1408887   2.14975542  2.27858721  2.37987566  2.42798673  2.44490512
  2.56983009  2.59975907  2.60859499  2.65279395  2.75514429  2.78678877
  2.94943551  3.31921912  3.3918212   3.48024811  3.51598927  3.5494091
  3.65765903  3.86482448  3.88369125  5.15636945  5.23052235  5.35685436
  5.42138884  5.44682996  5.47342907  5.60157167  5.69687848  5.71237364
  5.71963593  5.8010104   5.88397708  5.89849678  5.91170918  5.9700679
  6.08183482  6.2563916   6.3040594   6.3346593   6.39125477  6.48628988
  6.58621284  6.59444233  6.79371587  6.81536128  7.18030051  7.30240956
  7.38064163  7.43874733  7.68235289  7.70882734  7.82379434  7.82904063
  7.96997155  7.98751775  8.00673134  8.0194787   8.12775924  8.32212866
  8.36638727  8.37258382  8.55777521  8.65017222  8.73988723  8.89646529
  8.9525755   9.02236202  9.37525641 10.15297388 10.16406164 10.22995371
 10.31522849 10.48909441 10.6060477  10.64724461 12.67526832 19.55127652]
E1 = -17.594753140399554  E_coul = 6.9372890213725125
Extra cycle  E= -6.52337071036468  delta_E= -5.38e-12  |g|= 1.11e-06  |ddm|= 1.12e-05
    CPU time for scf_cycle    635.42 sec, wall time      5.28 sec
    CPU time for SCF    635.44 sec, wall time      5.28 sec
converged SCF energy = -6.52337071036468
