#INFO: **** input file is /home/nkousuke/lustre/toBeSync/turboRVB/05turbo-genius-development/turbogenius_paper/04data/sanity_checks/02pyscf_prep_LDA_via_trexio/00open_boundary/results/CO/pyscf-LDA-workflow/run.py ****

from pyscf_wrapper import Pyscf_wrapper

# input variables
pyscf_chkfile="pyscf.chk"
structure_file="CO.xyz"

# input variables
omp_num_threads=128
charge=0
spin=0
basis="ccecp-ccpvqz"
ecp="ccecp"
scf_method="DFT"
dft_xc="LDA_X,LDA_C_PZ"
solver_newton=False
MP2_flag=False
CCSD_flag=False
pyscf_output="out.pyscf"
twist_average=False
exp_to_discard=0.1
kpt=[0.0, 0.0, 0.0]
kpt_grid=[1, 1, 1]
smearing_method="fermi"
smearing_sigma=0.0

pyscf_calc=Pyscf_wrapper(
                        structure_file=structure_file,
                        chkfile=pyscf_chkfile,
                        )

pyscf_calc.run_pyscf(
                  omp_num_threads=omp_num_threads,
                  charge=charge,
                  spin=spin,
                  basis=basis,
                  ecp=ecp,
                  scf_method=scf_method,
                  dft_xc=dft_xc,
                  solver_newton=solver_newton,
                  MP2_flag=MP2_flag,
                  CCSD_flag=CCSD_flag,
                  pyscf_output=pyscf_output,
                  twist_average=twist_average,
                  exp_to_discard=exp_to_discard,
                  kpt=kpt,
                  kpt_grid=kpt_grid,
                  smearing_method=smearing_method,
                  smearing_sigma=smearing_sigma
                  )
                #INFO: ******************** input file end ********************


System: uname_result(system='Linux', node='spcc-205', release='5.4.0-66-generic', version='#74-Ubuntu SMP Wed Jan 27 22:54:38 UTC 2021', machine='x86_64', processor='x86_64')  Threads 128
Python 3.7.3 (default, Mar 27 2019, 22:11:17) 
[GCC 7.3.0]
numpy 1.20.1  scipy 1.7.3
Date: Thu Dec 22 06:18:00 2022
PySCF version 2.0.1
PySCF path  /home/nkousuke/application/anaconda3/lib/python3.7/site-packages/pyscf

[CONFIG] conf_file /home/nkousuke/.pyscf_conf.py
[INPUT] verbose = 5
[INPUT] max_memory = 507470.5625 
[INPUT] num. atoms = 2
[INPUT] num. electrons = 10
[INPUT] charge = 0
[INPUT] spin (= nelec alpha-beta = 2S) = 0
[INPUT] symmetry False subgroup None
[INPUT] Mole.unit = A
[INPUT]  1 O      0.000000000000   0.000000000000   0.493600000000 AA    0.000000000000   0.000000000000   0.932768815085 Bohr
[INPUT]  2 C      0.000000000000   0.000000000000  -0.644800000000 AA    0.000000000000   0.000000000000  -1.218495405120 Bohr
[INPUT] ---------------- BASIS SET ---------------- 
[INPUT] l, kappa, [nprim/nctr], expnt,             c_1 c_2 ...
[INPUT] C
[INPUT] 0    0    [9    /1   ]  13.073594         0.0051583
                                6.541187          0.0603424
                                4.573411          -0.1978471
                                1.637494          -0.081034
                                0.819297          0.2321726
                                0.409924          0.2914643
                                0.2313            0.4336405
                                0.102619          0.213194
                                0.051344          0.0049848
[INPUT] 0    0    [1    /1   ]  0.846879             1
[INPUT] 0    0    [1    /1   ]  0.269659             1
[INPUT] 0    0    [1    /1   ]  0.109576             1
[INPUT] 1    0    [9    /1   ]  9.934169          0.0209076
                                3.886955          0.0572698
                                1.871016          0.1122682
                                0.935757          0.2130082
                                0.468003          0.2835815
                                0.239473          0.3011207
                                0.117063          0.2016934
                                0.058547          0.0453575
                                0.029281          0.0029775
[INPUT] 1    0    [1    /1   ]  0.804681             1
[INPUT] 1    0    [1    /1   ]  0.313254             1
[INPUT] 1    0    [1    /1   ]  0.105389             1
[INPUT] 2    0    [1    /1   ]  2.01376              1
[INPUT] 2    0    [1    /1   ]  0.684884             1
[INPUT] 2    0    [1    /1   ]  0.240171             1
[INPUT] 3    0    [1    /1   ]  0.457302             1
[INPUT] 3    0    [1    /1   ]  1.32493              1
[INPUT] 4    0    [1    /1   ]  1.03418              1
[INPUT] O
[INPUT] 0    0    [9    /1   ]  54.775216         -0.0012444
                                25.616801         0.010733
                                11.980245         0.0018889
                                6.992317          -0.1742537
                                2.620277          0.0017622
                                1.225429          0.3161846
                                0.577797          0.4512023
                                0.268022          0.3121534
                                0.125346          0.0511167
[INPUT] 0    0    [1    /1   ]  1.351771             1
[INPUT] 0    0    [1    /1   ]  0.843157             1
[INPUT] 0    0    [1    /1   ]  0.22438              1
[INPUT] 1    0    [9    /1   ]  22.217266         0.0104866
                                10.74755          0.0366435
                                5.315785          0.0803674
                                2.660761          0.162701
                                1.331816          0.2377791
                                0.678626          0.2811422
                                0.333673          0.2643189
                                0.167017          0.1466014
                                0.083598          0.0458145
[INPUT] 1    0    [1    /1   ]  1.106737             1
[INPUT] 1    0    [1    /1   ]  0.452364             1
[INPUT] 1    0    [1    /1   ]  0.148562             1
[INPUT] 2    0    [1    /1   ]  4.008867             1
[INPUT] 2    0    [1    /1   ]  1.344331             1
[INPUT] 2    0    [1    /1   ]  0.455711             1
[INPUT] 3    0    [1    /1   ]  2.763115             1
[INPUT] 3    0    [1    /1   ]  0.876289             1
[INPUT] 4    0    [1    /1   ]  1.759081             1

nuclear repulsion = 11.1562307291637
number of shells = 28
number of NR pGTOs = 172
number of NR cGTOs = 108
basis = ccecp-ccpvqz
ecp = ccecp
CPU time:         5.26


******** <class 'pyscf.df.df_jk.density_fit.<locals>.DFHF'> ********
method = DFHF-RKS-RHF
initial guess = minao
damping factor = 0
level_shift factor = 0
DIIS = <class 'pyscf.scf.diis.CDIIS'>
diis_start_cycle = 1
diis_space = 8
SCF conv_tol = 1e-09
SCF conv_tol_grad = None
SCF max_cycles = 200
direct_scf = True
direct_scf_tol = 1e-13
chkfile to save SCF result = pyscf.chk
max_memory 507470 MB (current use 106 MB)
XC library pyscf.dft.libxc version 5.1.7
    S. Lehtola, C. Steigemann, M. J. Oliveira, and M. A. Marques, SoftwareX 7, 1 (2018)
XC functionals = LDA_X,LDA_C_PZ
    P. A. M. Dirac, Math. Proc. Cambridge Philos. Soc. 26, 376 (1930)
    F. Bloch, Z. Phys. 57, 545 (1929)
    J. P. Perdew and A. Zunger, Phys. Rev. B 23, 5048 (1981)
radial grids: 
    Treutler-Ahlrichs [JCP 102, 346 (1995); DOI:10.1063/1.469408] (M4) radial grids
    
becke partition: Becke, JCP 88, 2547 (1988); DOI:10.1063/1.454033
pruning grids: <function nwchem_prune at 0x1462a5310730>
grids dens level: 3
symmetrized grids: False
atomic radii adjust function: <function treutler_atomic_radii_adjust at 0x1462a5310620>
small_rho_cutoff = 1e-07
Set gradient conv threshold to 3.16228e-05
atom O rad-grids = 75, ang-grids = [ 50  50  50  50  50  50  50  50  50  50  50  50  50  50  50  50  50  50
  50  50  50  50  86  86  86  86  86  86  86  86  86 266 266 266 266 266
 266 266 302 302 302 302 302 302 302 302 302 302 302 302 302 302 302 302
 302 302 302 266 266 266 266 266 266 266 266 266 266 266 266 266 266 266
 266 266 266]
atom C rad-grids = 75, ang-grids = [ 50  50  50  50  50  50  50  50  50  50  50  50  50  50  50  50  50  50
  50  50  50  50  50  86  86  86  86  86  86  86  86  86  86 266 266 266
 266 266 266 266 302 302 302 302 302 302 302 302 302 302 302 302 302 302
 302 302 302 302 302 302 266 266 266 266 266 266 266 266 266 266 266 266
 266 266 266]
tot grids = 28164
Drop grids 1499
    CPU time for setting up grids     30.80 sec, wall time      0.25 sec
nelec by numeric integration = 9.999999737898984
    CPU time for vxc     40.33 sec, wall time      0.32 sec
Even tempered Gaussians are generated as DF auxbasis for  C O
  ETB auxbasis for C  [[0, [13.144064, 1]], [0, [6.572032, 1]], [0, [3.286016, 1]], [0, [1.643008, 1]], [0, [0.821504, 1]], [0, [0.410752, 1]], [0, [0.205376, 1]], [0, [0.102688, 1]], [1, [19.852159834527225, 1]], [1, [9.926079917263612, 1]], [1, [4.963039958631806, 1]], [1, [2.481519979315903, 1]], [1, [1.2407599896579515, 1]], [1, [0.6203799948289758, 1]], [1, [0.3101899974144879, 1]], [1, [0.15509499870724394, 1]], [1, [0.07754749935362197, 1]], [2, [14.991872, 1]], [2, [7.495936, 1]], [2, [3.747968, 1]], [2, [1.873984, 1]], [2, [0.936992, 1]], [2, [0.468496, 1]], [2, [0.234248, 1]], [2, [0.117124, 1]], [2, [0.058562, 1]], [3, [5.36701994787573, 1]], [3, [2.683509973937865, 1]], [3, [1.3417549869689325, 1]], [3, [0.6708774934844662, 1]], [3, [0.3354387467422331, 1]], [3, [0.16771937337111656, 1]], [4, [3.842736, 1]], [4, [1.921368, 1]], [4, [0.960684, 1]], [4, [0.480342, 1]]]
  ETB auxbasis for O  [[0, [64.177152, 1]], [0, [32.088576, 1]], [0, [16.044288, 1]], [0, [8.022144, 1]], [0, [4.011072, 1]], [0, [2.005536, 1]], [0, [1.002768, 1]], [0, [0.501384, 1]], [0, [0.250692, 1]], [1, [52.41108427692326, 1]], [1, [26.20554213846163, 1]], [1, [13.102771069230815, 1]], [1, [6.551385534615408, 1]], [1, [3.275692767307704, 1]], [1, [1.637846383653852, 1]], [1, [0.818923191826926, 1]], [1, [0.409461595913463, 1]], [1, [0.2047307979567315, 1]], [2, [42.802176, 1]], [2, [21.401088, 1]], [2, [10.700544, 1]], [2, [5.350272, 1]], [2, [2.675136, 1]], [2, [1.337568, 1]], [2, [0.668784, 1]], [2, [0.334392, 1]], [2, [0.167196, 1]], [3, [12.491732442583295, 1]], [3, [6.245866221291648, 1]], [3, [3.122933110645824, 1]], [3, [1.561466555322912, 1]], [3, [0.780733277661456, 1]], [3, [0.390366638830728, 1]], [4, [7.291376, 1]], [4, [3.645688, 1]], [4, [1.822844, 1]], [4, [0.911422, 1]]]
num shells = 73, num cGTOs = 317
    CPU time for df-vj     39.82 sec, wall time      0.31 sec
E1 = -55.68377623589092  Ecoul = 27.996947732860225  Exc = -4.815805679813557
init E= -21.3464034536805
cond(S) = 12634.064184228486
    CPU time for initialize scf    205.46 sec, wall time      1.73 sec
  HOMO = -0.372132185964532  LUMO = -0.11103195282314
  mo_energy =
[-1.1738087  -0.59731599 -0.49907021 -0.49907021 -0.37213219 -0.11103195
 -0.11103195  0.08627107  0.18223492  0.19159959  0.19159959  0.25265667
  0.33156071  0.33156071  0.42370536  0.42640709  0.42640711  0.60891943
  0.60891943  0.757254    0.87043634  1.01645629  1.01645643  1.10630952
  1.23508563  1.23508563  1.30386241  1.30386241  1.41892948  1.49262798
  1.49262798  1.69465651  1.7366473   1.7366473   1.74111845  1.74111862
  1.78472695  1.78472695  1.80208376  1.80208387  1.97858674  2.46321849
  2.46321849  2.54292024  2.81037458  3.02599863  3.02599863  3.37950545
  3.37950645  3.73039058  3.73039058  3.78392573  3.78393077  3.83688906
  4.1158206   4.1158206   4.26892517  4.76338551  4.76338851  4.88298489
  4.88298489  4.90125585  5.14524245  5.14524245  5.34291601  5.34291601
  5.36114315  5.36114502  5.42326402  5.52707507  5.52707507  5.60952122
  5.60952348  5.9175577   5.9175577   6.14374276  6.26970501  6.26970523
  6.38035065  6.65039121  6.65039121  7.40958625  7.71935559  7.71935559
  8.18852023  8.1886128   8.48350023  8.48350023  8.73220349  9.43265809
  9.43265942  9.78752367  9.87929741  9.87929741 10.97540222 10.97540222
 11.30148321 11.30148987 11.76384453 11.76384453 12.20185743 12.20197459
 12.56551079 13.25002644 13.56241083 13.56241083 18.56334727 31.87052831]
nelec by numeric integration = 9.99999971350863
    CPU time for vxc     33.26 sec, wall time      0.26 sec
    CPU time for df-vj      1.54 sec, wall time      0.01 sec
E1 = -57.278203470489956  Ecoul = 29.692851022491652  Exc = -5.118805705025514
cycle= 1 E= -21.5479274238601  delta_E= -0.202  |g|= 0.551  |ddm|=  3.3
    CPU time for cycle= 1     58.88 sec, wall time      0.46 sec
  HOMO = -0.304553005259424  LUMO = -0.0313101350994649
  mo_energy =
[-9.63636663e-01 -4.25638424e-01 -3.50982805e-01 -3.50982805e-01
 -3.04553005e-01 -3.13101351e-02 -3.13101351e-02  1.22332769e-01
  1.83509190e-01  2.02394139e-01  2.02394139e-01  3.01187234e-01
  3.96145272e-01  3.96145272e-01  4.30981260e-01  4.30981270e-01
  4.90997440e-01  6.31156256e-01  6.31156256e-01  8.52736494e-01
  9.46787118e-01  1.09163271e+00  1.09163285e+00  1.19194824e+00
  1.24729863e+00  1.24729863e+00  1.39505206e+00  1.39505206e+00
  1.42735774e+00  1.48774677e+00  1.48774677e+00  1.72604372e+00
  1.76518891e+00  1.76518915e+00  1.79720829e+00  1.79720829e+00
  1.80299320e+00  1.80299326e+00  1.87923545e+00  1.87923545e+00
  2.06539800e+00  2.52741687e+00  2.52741687e+00  2.66127545e+00
  2.90449609e+00  3.14209199e+00  3.14209199e+00  3.51743663e+00
  3.51743700e+00  3.91689301e+00  3.91689301e+00  3.96739189e+00
  3.96739780e+00  4.05120271e+00  4.21183268e+00  4.21183268e+00
  4.37771657e+00  4.75176658e+00  4.75176961e+00  4.90807158e+00
  4.90807158e+00  4.98907155e+00  5.17475506e+00  5.17475506e+00
  5.33556665e+00  5.33556665e+00  5.38229433e+00  5.38229666e+00
  5.44255649e+00  5.56579195e+00  5.56579195e+00  5.66183809e+00
  5.66183984e+00  6.03902857e+00  6.03902857e+00  6.28689690e+00
  6.28689724e+00  6.28987993e+00  6.57520228e+00  6.86161829e+00
  6.86161829e+00  7.52535697e+00  7.84127145e+00  7.84127145e+00
  8.37911398e+00  8.37920894e+00  8.67506814e+00  8.67506814e+00
  8.93857015e+00  9.62740637e+00  9.62740764e+00  1.00028157e+01
  1.01082566e+01  1.01082566e+01  1.12572797e+01  1.12572797e+01
  1.15874997e+01  1.15875069e+01  1.20526904e+01  1.20526904e+01
  1.25360958e+01  1.25362155e+01  1.28521029e+01  1.35479127e+01
  1.38729015e+01  1.38729015e+01  1.86446907e+01  3.23096739e+01]
nelec by numeric integration = 9.999999815916855
    CPU time for vxc     35.33 sec, wall time      0.28 sec
    CPU time for df-vj      8.13 sec, wall time      0.06 sec
E1 = -54.279808074462274  Ecoul = 26.6070637360235  Exc = -4.604228040789502
cycle= 2 E= -21.1207416500645  delta_E= 0.427  |g|= 1.56  |ddm|= 1.88
    CPU time for cycle= 2    103.37 sec, wall time      0.82 sec
  HOMO = -0.308018753437368  LUMO = -0.0588546095553622
  mo_energy =
[-1.05834406 -0.50437109 -0.41912746 -0.41912746 -0.30801875 -0.05885461
 -0.05885461  0.10240849  0.20709857  0.2095931   0.2095931   0.2721759
  0.3548002   0.3548002   0.4391688   0.43916881  0.47901659  0.63316636
  0.63316636  0.79500083  0.92349396  1.04332908  1.04332919  1.14893782
  1.27137087  1.27137087  1.34518748  1.34518748  1.46814854  1.50633705
  1.50633705  1.73225889  1.76607701  1.76607719  1.79819261  1.79819261
  1.82219512  1.82219512  1.83435101  1.83435109  2.03885486  2.5092807
  2.5092807   2.59414336  2.87334204  3.06393062  3.06393062  3.44327305
  3.44327346  3.81583214  3.81583214  3.84685734  3.84686268  3.94132157
  4.1823211   4.1823211   4.33329511  4.78845332  4.78845637  4.92395989
  4.92395989  4.9808424   5.20949582  5.20949582  5.3842654   5.3842654
  5.4220717   5.42207366  5.48898424  5.59241696  5.59241696  5.66611515
  5.66611719  6.00757483  6.00757483  6.2419691   6.33187083  6.33187105
  6.4796318   6.75547858  6.75547858  7.50737446  7.80970389  7.80970389
  8.25413909  8.25423075  8.56079685  8.56079685  8.84399155  9.52546259
  9.52546398  9.89634004  9.99262698  9.99262698 11.08335952 11.08335952
 11.41880526 11.41881204 11.88979718 11.88979718 12.33837514 12.33849136
 12.70878383 13.39768407 13.70610661 13.70610661 18.67538893 32.06070892]
nelec by numeric integration = 9.999999743960704
    CPU time for vxc     33.95 sec, wall time      0.27 sec
    CPU time for df-vj      8.12 sec, wall time      0.06 sec
E1 = -56.264758350657395  Ecoul = 28.407104234365608  Exc = -4.894896565353882
cycle= 3 E= -21.5963199524819  delta_E= -0.476  |g|= 0.111  |ddm|= 1.34
    CPU time for cycle= 3     75.94 sec, wall time      0.60 sec
  HOMO = -0.340360729944659  LUMO = -0.0845423911577841
  mo_energy =
[-1.091274   -0.52698313 -0.44378865 -0.44378865 -0.34036073 -0.08454239
 -0.08454239  0.09652365  0.19176448  0.19786037  0.19786037  0.2671055
  0.34750028  0.34750028  0.42689936  0.42689937  0.45705591  0.61997547
  0.61997547  0.78539615  0.90140115  1.03478242  1.03478251  1.13728514
  1.24819379  1.24819379  1.33362964  1.33362964  1.43933832  1.4905243
  1.4905243   1.7139947   1.75154328  1.75154345  1.77830653  1.77830653
  1.80152582  1.80152582  1.80831167  1.80831173  2.01692697  2.49070776
  2.49070776  2.58088871  2.84892379  3.05428072  3.05428072  3.42426492
  3.42426531  3.79393889  3.79393889  3.83268863  3.83269376  3.9148402
  4.15912923  4.15912923  4.31293088  4.76259306  4.76259599  4.89819867
  4.89819867  4.94548439  5.1719791   5.1719791   5.3503856   5.3503856
  5.3868584   5.3868603   5.45324862  5.55962637  5.55962637  5.63788171
  5.63788366  5.9732487   5.9732487   6.20651649  6.29250806  6.29250821
  6.44902282  6.72088689  6.72088689  7.46864258  7.77357379  7.77357379
  8.23872157  8.23881273  8.54206915  8.54206915  8.80771718  9.50090177
  9.50090361  9.86802783  9.96381672  9.96381672 11.05593879 11.05593879
 11.3912874  11.39129417 11.86082947 11.86082947 12.30215362 12.3022694
 12.67243477 13.35719841 13.66808267 13.66808267 18.62284377 32.00953092]
nelec by numeric integration = 9.999999740815124
    CPU time for vxc     42.07 sec, wall time      0.34 sec
    CPU time for df-vj     11.76 sec, wall time      0.10 sec
E1 = -56.4681418250203  Ecoul = 28.654142079293823  Exc = -4.941094567593954
cycle= 4 E= -21.5988635841567  delta_E= -0.00254  |g|= 0.024  |ddm|= 0.249
    CPU time for cycle= 4    127.96 sec, wall time      1.01 sec
  HOMO = -0.336100364845923  LUMO = -0.0805543809282742
  mo_energy =
[-1.08580801 -0.52402977 -0.43972169 -0.43972169 -0.33610036 -0.08055438
 -0.08055438  0.09776705  0.19365683  0.20011931  0.20011931  0.26815839
  0.34880532  0.34880532  0.42943837  0.42943837  0.46031232  0.62201602
  0.62201602  0.78720757  0.90467147  1.03714383  1.03714391  1.13951227
  1.25238278  1.25238278  1.33588221  1.33588221  1.44312698  1.4936209
  1.4936209   1.71689767  1.75421092  1.75421108  1.78139128  1.78139128
  1.80428934  1.80428934  1.81300358  1.81300359  2.02008016  2.49413777
  2.49413777  2.58303179  2.85279925  3.05716333  3.05716333  3.42814415
  3.42814447  3.79727622  3.79727622  3.83502398  3.83502911  3.91858107
  4.16276608  4.16276608  4.31606635  4.76742038  4.76742332  4.9030564
  4.9030564   4.95123499  5.17844469  5.17844469  5.35632374  5.35632374
  5.39261943  5.39262111  5.45803285  5.5640788   5.5640788   5.64284281
  5.64284457  5.97878784  5.97878784  6.21203684  6.29928721  6.29928773
  6.45246372  6.72518414  6.72518414  7.47424333  7.77902356  7.77902356
  8.24198692  8.24207819  8.54566077  8.54566077  8.81254582  9.50512269
  9.50512454  9.87222982  9.96808194  9.96808194 11.05923506 11.05923506
 11.39443788 11.39444465 11.86404272 11.86404272 12.30541896 12.30553486
 12.6765605  13.36149938 13.67197337 13.67197337 18.63132485 32.01273846]
nelec by numeric integration = 9.999999740223727
    CPU time for vxc     34.53 sec, wall time      0.27 sec
    CPU time for df-vj      6.55 sec, wall time      0.05 sec
E1 = -56.45753052024347  Ecoul = 28.64104103475311  Exc = -4.938741851118005
cycle= 5 E= -21.5990006074446  delta_E= -0.000137  |g|= 0.00254  |ddm|= 0.034
    CPU time for cycle= 5     70.73 sec, wall time      0.55 sec
  HOMO = -0.335237019844669  LUMO = -0.0799702597793358
  mo_energy =
[-1.08545073 -0.52352962 -0.43932738 -0.43932738 -0.33523702 -0.07997026
 -0.07997026  0.09787566  0.19409721  0.2003639   0.2003639   0.26822806
  0.34891957  0.34891957  0.42970066  0.42970066  0.46077985  0.62235373
  0.62235373  0.78739768  0.9050729   1.03728469  1.03728477  1.13966498
  1.25286102  1.25286102  1.33609585  1.33609585  1.44394541  1.49396904
  1.49396904  1.71734997  1.75455413  1.75455429  1.78175077  1.78175077
  1.8048758   1.8048758   1.81358941  1.81358941  2.02054461  2.4945007
  2.4945007   2.5832927   2.85329526  3.0572895   3.0572895   3.42839216
  3.42839246  3.79764856  3.79764856  3.83529837  3.83530347  3.91898781
  4.16328112  4.16328112  4.31654081  4.76799517  4.76799812  4.90360393
  4.90360393  4.95192518  5.17921256  5.17921256  5.35710196  5.35710196
  5.39345728  5.39345889  5.45903706  5.56497672  5.56497672  5.64343475
  5.64343643  5.97940886  5.97940886  6.21257353  6.30014246  6.30014309
  6.45318083  6.72582515  6.72582515  7.4750795   7.7797768   7.7797768
  8.24220506  8.24229635  8.54592986  8.54592986  8.81322417  9.50545383
  9.50545578  9.8726665   9.96847279  9.96847279 11.05969113 11.05969113
 11.3949401  11.3949469  11.86456995 11.86456995 12.30604663 12.30616255
 12.67712087 13.3622546  13.67264392 13.67264392 18.63229764 32.01369952]
nelec by numeric integration = 9.99999974025233
    CPU time for vxc     35.02 sec, wall time      0.27 sec
    CPU time for df-vj      7.06 sec, wall time      0.06 sec
E1 = -56.4548123353499  Ecoul = 28.63751339585793  Exc = -4.9379342611051
cycle= 6 E= -21.5990024714333  delta_E= -1.86e-06  |g|= 0.000251  |ddm|= 0.00611
    CPU time for cycle= 6     66.33 sec, wall time      0.52 sec
  HOMO = -0.335320392531797  LUMO = -0.0800458278325187
  mo_energy =
[-1.08553161 -0.52363379 -0.43940827 -0.43940827 -0.33532039 -0.08004583
 -0.08004583  0.09783695  0.19406128  0.2003227   0.2003227   0.26818537
  0.34887743  0.34887743  0.42966175  0.42966175  0.46071578  0.62231281
  0.62231281  0.78733612  0.9050168   1.037229    1.03722908  1.13960951
  1.25279526  1.25279526  1.33602899  1.33602899  1.44386819  1.49392662
  1.49392662  1.71729009  1.75450555  1.7545057   1.78168174  1.78168174
  1.80482184  1.80482184  1.81352229  1.8135223   2.02047179  2.49443655
  2.49443655  2.58321979  2.85322387  3.05722115  3.05722115  3.42832092
  3.42832121  3.79756223  3.79756223  3.83521293  3.83521803  3.91889852
  4.16319251  4.16319251  4.31644983  4.7679315   4.76793446  4.90353416
  4.90353416  4.95182238  5.17910266  5.17910266  5.3570153   5.3570153
  5.39336431  5.39336591  5.45894177  5.56488581  5.56488581  5.64335481
  5.64335647  5.97930869  5.97930869  6.21249167  6.30003195  6.30003261
  6.45306951  6.72573222  6.72573222  7.4749681   7.77967262  7.77967262
  8.24212075  8.24221204  8.54584353  8.54584353  8.81312394  9.50536886
  9.50537082  9.87256924  9.96838417  9.96838417 11.05959627 11.05959627
 11.39483865 11.39484545 11.86446582 11.86446582 12.30595205 12.30606797
 12.67702583 13.36214145 13.67254569 13.67254569 18.63214888 32.0136065 ]
nelec by numeric integration = 9.999999740249715
    CPU time for vxc     34.16 sec, wall time      0.27 sec
    CPU time for df-vj      8.57 sec, wall time      0.07 sec
E1 = -56.45528724229216  Ecoul = 28.638098614364363  Exc = -4.93804458862699
cycle= 7 E= -21.599002487391  delta_E= -1.6e-08  |g|= 1.46e-05  |ddm|= 0.000582
    CPU time for cycle= 7     81.18 sec, wall time      0.64 sec
  HOMO = -0.335319750601909  LUMO = -0.0800438533757939
  mo_energy =
[-1.08552855 -0.52363058 -0.43940589 -0.43940589 -0.33531975 -0.08004385
 -0.08004385  0.0978371   0.19406045  0.20032319  0.20032319  0.26818599
  0.34887792  0.34887792  0.42966195  0.42966195  0.46071679  0.62231253
  0.62231253  0.78733764  0.90501785  1.03723018  1.03723025  1.13961116
  1.25279731  1.25279731  1.33603101  1.33603101  1.44386848  1.4939272
  1.4939272   1.71729054  1.75450607  1.75450622  1.78168331  1.78168331
  1.80482132  1.80482132  1.81352438  1.81352439  2.02047369  2.49443796
  2.49443796  2.58322181  2.85322527  3.05722295  3.05722295  3.42832286
  3.42832315  3.79756465  3.79756465  3.83521522  3.83522032  3.91890109
  4.16319483  4.16319483  4.31645234  4.76793379  4.76793675  4.90353623
  4.90353623  4.95182572  5.1791073   5.1791073   5.35701871  5.35701871
  5.3933667   5.3933683   5.45894213  5.56488638  5.56488638  5.64335702
  5.64335868  5.97931235  5.97931235  6.21249476  6.30003654  6.30003719
  6.45307237  6.72573474  6.72573474  7.47497084  7.7796754   7.7796754
  8.24212282  8.24221411  8.54584594  8.54584594  8.81312659  9.50537145
  9.50537342  9.87257245  9.96838702  9.96838702 11.05959849 11.05959849
 11.39484112 11.39484793 11.86446847 11.86446847 12.30595425 12.30607017
 12.67702867 13.36214479 13.67254831 13.67254831 18.6321559  32.01360876]
nelec by numeric integration = 9.999999740249226
    CPU time for vxc     34.06 sec, wall time      0.27 sec
    CPU time for df-vj      8.01 sec, wall time      0.06 sec
E1 = -56.4552731767317  Ecoul = 28.63808197729708  Exc = -4.938042017167189
cycle= 8 E= -21.5990024874381  delta_E= -4.7e-11  |g|= 2.12e-06  |ddm|= 2.57e-05
    CPU time for cycle= 8     92.75 sec, wall time      0.73 sec
  HOMO = -0.335319662952329  LUMO = -0.080043991097455
  mo_energy =
[-1.08552909 -0.52363134 -0.43940639 -0.43940639 -0.33531966 -0.08004399
 -0.08004399  0.09783691  0.19406052  0.20032314  0.20032314  0.26818573
  0.34887765  0.34887765  0.42966191  0.42966191  0.46071666  0.62231248
  0.62231248  0.78733724  0.90501769  1.03722992  1.03722999  1.13961086
  1.25279736  1.25279736  1.3360307   1.3360307   1.44386868  1.49392721
  1.49392721  1.71729053  1.75450602  1.75450617  1.78168284  1.78168284
  1.80482141  1.80482141  1.81352448  1.81352449  2.02047347  2.49443785
  2.49443785  2.58322137  2.85322507  3.05722258  3.05722258  3.42832248
  3.42832276  3.79756402  3.79756402  3.83521455  3.83521965  3.9189004
  4.16319463  4.16319463  4.31645202  4.7679339   4.76793685  4.90353627
  4.90353627  4.95182562  5.17910743  5.17910743  5.3570189   5.3570189
  5.39336687  5.39336847  5.45894238  5.56488649  5.56488649  5.64335702
  5.64335868  5.97931212  5.97931212  6.21249448  6.30003675  6.3000374
  6.4530717   6.72573413  6.72573413  7.4749707   7.77967522  7.77967522
  8.24212222  8.24221351  8.54584534  8.54584534  8.81312603  9.5053709
  9.50537286  9.87257179  9.96838634  9.96838634 11.05959756 11.05959756
 11.39484011 11.39484691 11.86446743 11.86446743 12.30595312 12.30606903
 12.67702778 13.36214379 13.67254727 13.67254727 18.63215604 32.0136072 ]
nelec by numeric integration = 9.999999740248832
    CPU time for vxc     41.77 sec, wall time      0.33 sec
    CPU time for df-vj      8.06 sec, wall time      0.06 sec
E1 = -56.45528241060328  Ecoul = 28.63809299421169  Exc = -4.938043800204246
Extra cycle  E= -21.5990024874321  delta_E= 5.97e-12  |g|= 6.02e-06  |ddm|= 7.49e-06
    CPU time for scf_cycle    966.80 sec, wall time      7.72 sec
    CPU time for SCF    966.80 sec, wall time      7.72 sec
converged SCF energy = -21.5990024874321
