#INFO: **** input file is /home/nkousuke/lustre/toBeSync/turboRVB/05turbo-genius-development/turbogenius_paper/04data/sanity_checks/03pyscf_HF_turbo_VMC_via_trexio/00open_boundary/results/SiH4/pyscf-HF-workflow/run.py ****

from pyscf_wrapper import Pyscf_wrapper

# input variables
pyscf_chkfile="pyscf.chk"
structure_file="SiH4.xyz"

# input variables
omp_num_threads=128
charge=0
spin=0
basis="ccecp-ccpvqz"
ecp="ccecp"
scf_method="HF"
dft_xc="NA"
solver_newton=False
MP2_flag=False
CCSD_flag=False
pyscf_output="out.pyscf"
twist_average=False
exp_to_discard=0.0
kpt=[0.0, 0.0, 0.0]
kpt_grid=[1, 1, 1]
smearing_method="fermi"
smearing_sigma=0.0

pyscf_calc=Pyscf_wrapper(
                        structure_file=structure_file,
                        chkfile=pyscf_chkfile,
                        )

pyscf_calc.run_pyscf(
                  omp_num_threads=omp_num_threads,
                  charge=charge,
                  spin=spin,
                  basis=basis,
                  ecp=ecp,
                  scf_method=scf_method,
                  dft_xc=dft_xc,
                  solver_newton=solver_newton,
                  MP2_flag=MP2_flag,
                  CCSD_flag=CCSD_flag,
                  pyscf_output=pyscf_output,
                  twist_average=twist_average,
                  exp_to_discard=exp_to_discard,
                  kpt=kpt,
                  kpt_grid=kpt_grid,
                  smearing_method=smearing_method,
                  smearing_sigma=smearing_sigma
                  )
                #INFO: ******************** input file end ********************


System: uname_result(system='Linux', node='spcc-145', release='5.4.0-66-generic', version='#74-Ubuntu SMP Wed Jan 27 22:54:38 UTC 2021', machine='x86_64', processor='x86_64')  Threads 128
Python 3.7.3 (default, Mar 27 2019, 22:11:17) 
[GCC 7.3.0]
numpy 1.20.1  scipy 1.7.3
Date: Mon Dec 19 18:02:42 2022
PySCF version 2.0.1
PySCF path  /home/nkousuke/application/anaconda3/lib/python3.7/site-packages/pyscf

[CONFIG] conf_file /home/nkousuke/.pyscf_conf.py
[INPUT] verbose = 5
[INPUT] max_memory = 506625.453125 
[INPUT] num. atoms = 5
[INPUT] num. electrons = 8
[INPUT] charge = 0
[INPUT] spin (= nelec alpha-beta = 2S) = 0
[INPUT] symmetry False subgroup None
[INPUT] Mole.unit = A
[INPUT]  1 Si     0.000000000000   0.000000000000   0.000000000000 AA    0.000000000000   0.000000000000   0.000000000000 Bohr
[INPUT]  2 H      0.852575000000   0.852575000000   0.852575000000 AA    1.611133250651   1.611133250651   1.611133250651 Bohr
[INPUT]  3 H     -0.852575000000  -0.852575000000   0.852575000000 AA   -1.611133250651  -1.611133250651   1.611133250651 Bohr
[INPUT]  4 H     -0.852575000000   0.852575000000  -0.852575000000 AA   -1.611133250651   1.611133250651  -1.611133250651 Bohr
[INPUT]  5 H      0.852575000000  -0.852575000000  -0.852575000000 AA    1.611133250651  -1.611133250651  -1.611133250651 Bohr
[INPUT] ---------------- BASIS SET ---------------- 
[INPUT] l, kappa, [nprim/nctr], expnt,             c_1 c_2 ...
[INPUT] H
[INPUT] 0    0    [8    /1   ]  23.843185         0.0041149
                                10.212443         0.0104644
                                4.374164          0.0280111
                                1.873529          0.0758862
                                0.802465          0.1821062
                                0.343709          0.3485214
                                0.147217          0.3782313
                                0.063055          0.1164241
[INPUT] 0    0    [1    /1   ]  0.081856             1
[INPUT] 0    0    [1    /1   ]  0.233254             1
[INPUT] 0    0    [1    /1   ]  0.664673             1
[INPUT] 1    0    [1    /1   ]  0.284469             1
[INPUT] 1    0    [1    /1   ]  0.847159             1
[INPUT] 1    0    [1    /1   ]  2.522868             1
[INPUT] 2    0    [1    /1   ]  0.665279             1
[INPUT] 2    0    [1    /1   ]  2.048739             1
[INPUT] 3    0    [1    /1   ]  1.42146              1
[INPUT] Si
[INPUT] 0    0    [10   /1   ]  9.998274          0.002894
                                5.517644          -0.014523
                                3.044965          0.077634
                                1.680393          -0.224022
                                0.927341          -0.14908
                                0.511762          0.085944
                                0.282421          0.355394
                                0.155857          0.445219
                                0.086011          0.26723
                                0.047466          0.060787
[INPUT] 0    0    [1    /1   ]  0.488504             1
[INPUT] 0    0    [1    /1   ]  0.199457             1
[INPUT] 0    0    [1    /1   ]  0.081439             1
[INPUT] 1    0    [10   /1   ]  5.027868          -0.003242
                                2.867751          0.010649
                                1.635683          -0.049761
                                0.932947          -1.7e-05
                                0.532126          0.10606
                                0.303509          0.236202
                                0.173113          0.310665
                                0.098739          0.294696
                                0.056318          0.153898
                                0.032122          0.042337
[INPUT] 1    0    [1    /1   ]  1.22579              1
[INPUT] 1    0    [1    /1   ]  0.501364             1
[INPUT] 1    0    [1    /1   ]  0.205064             1
[INPUT] 2    0    [1    /1   ]  0.997003             1
[INPUT] 2    0    [1    /1   ]  0.365942             1
[INPUT] 2    0    [1    /1   ]  0.134316             1
[INPUT] 3    0    [1    /1   ]  0.549116             1
[INPUT] 3    0    [1    /1   ]  0.214998             1
[INPUT] 4    0    [1    /1   ]  0.459547             1

nuclear repulsion = 7.05027014122111
number of shells = 54
number of NR pGTOs = 238
number of NR cGTOs = 174
basis = ccecp-ccpvqz
ecp = ccecp
CPU time:         5.74


******** <class 'pyscf.scf.hf.RHF'> ********
method = RHF
initial guess = minao
damping factor = 0
level_shift factor = 0
DIIS = <class 'pyscf.scf.diis.CDIIS'>
diis_start_cycle = 1
diis_space = 8
SCF conv_tol = 1e-09
SCF conv_tol_grad = None
SCF max_cycles = 200
direct_scf = True
direct_scf_tol = 1e-13
chkfile to save SCF result = pyscf.chk
max_memory 506625 MB (current use 106 MB)
Set gradient conv threshold to 3.16228e-05
E1 = -21.118490383277035  E_coul = 8.58799957214064
init E= -5.48022066991529
cond(S) = 40002.182622745466
    CPU time for initialize scf    188.02 sec, wall time      1.73 sec
  HOMO = -0.42279257296289  LUMO = 0.0876288057433563
  mo_energy =
[-0.89469319 -0.42279257 -0.42279257 -0.42279257  0.08762881  0.09924135
  0.09924135  0.09924135  0.21327327  0.21327327  0.21327327  0.25731415
  0.25731415  0.31514557  0.3320383   0.3320383   0.3320383   0.38221948
  0.53753003  0.53753003  0.53753003  0.6470425   0.6470425   0.6470425
  0.78221196  0.78221196  0.78221196  0.8362464   0.8362464   0.8362464
  0.85859444  0.85859444  0.90527574  1.03498784  1.03498784  1.03498784
  1.0749131   1.0749131   1.0843348   1.0843348   1.0843348   1.09036184
  1.32171271  1.32171271  1.32171271  1.37585948  1.47683007  1.47683007
  1.47683007  1.64182453  1.64182453  1.64182453  1.9416327   1.9416327
  1.9416327   1.99943755  1.99943755  2.10740535  2.17097915  2.17097915
  2.17097915  2.27370334  2.28333346  2.28333346  2.28333346  2.42180058
  2.42180058  2.42180058  2.480119    2.480119    2.480119    2.48207802
  2.48207802  2.5901341   2.5901341   2.5901341   2.64118886  2.70750753
  2.70750753  2.83478412  2.83478412  2.83478412  2.8598541   2.8598541
  2.8598541   2.95059352  2.95059352  2.95059352  3.16547763  3.16547763
  3.29737617  3.29737617  3.29737617  3.46176521  3.52327742  3.52327742
  3.61922825  3.61922825  3.61922825  3.75143197  3.75143197  3.75143197
  3.83451687  3.83451687  3.83451687  4.0334385   5.38943734  5.38943734
  5.38943734  6.1140241   6.12066517  6.12066517  6.12066517  6.18254709
  6.18254709  6.18254709  6.27046327  6.360514    6.360514    6.360514
  6.4146215   6.49065631  6.49065631  6.49619577  6.49619577  6.49619577
  6.67359092  6.67359092  6.67359092  6.79895164  6.79895164  6.79895164
  6.99266207  6.99266207  7.05532057  7.05532057  7.05532057  7.10989184
  7.10989184  7.10989184  7.12466518  8.22445689  8.22445689  8.22445689
  8.28241856  8.28241856  8.41179107  8.41179107  8.41179107  8.54974805
  8.54974805  8.54974805  8.59935866  8.59935866  8.59935866  8.65065242
  8.65065242  8.89935543  8.89935543  8.89935543  8.99893029  8.99933529
  8.99933529  9.03465254  9.03465254  9.03465254  9.18775989  9.18775989
  9.18775989  9.23439252  9.80210232  9.80210232  9.80210232 11.52918782]
E1 = -21.783047931000297  E_coul = 8.66313409071851
cycle= 1 E= -6.06964369906068  delta_E= -0.589  |g|= 0.165  |ddm|= 2.54
    CPU time for cycle= 1     30.40 sec, wall time      0.31 sec
  HOMO = -0.494186034752265  LUMO = 0.113211097845063
  mo_energy =
[-0.75175263 -0.49418603 -0.49418603 -0.49418603  0.1132111   0.1352901
  0.1352901   0.1352901   0.21755987  0.21755987  0.21755987  0.27516093
  0.27516093  0.35205228  0.35205228  0.35205228  0.35824917  0.41165864
  0.56037899  0.56037899  0.56037899  0.66401254  0.66401254  0.66401254
  0.79974995  0.79974995  0.79974995  0.85627963  0.85627963  0.85627963
  0.88036988  0.88036988  0.91854742  1.04636472  1.04636472  1.04636472
  1.09787228  1.09787228  1.10379704  1.10379704  1.10379704  1.11607784
  1.34711747  1.34711747  1.34711747  1.40108714  1.51314633  1.51314633
  1.51314633  1.66530745  1.66530745  1.66530745  1.98123215  1.98123215
  1.98123215  2.03082634  2.03082634  2.13510655  2.20546304  2.20546304
  2.20546304  2.30541716  2.31316194  2.31316194  2.31316194  2.45351683
  2.45351683  2.45351683  2.5079034   2.5079034   2.5079034   2.52157415
  2.52157415  2.62031666  2.62031666  2.62031666  2.66800743  2.73894545
  2.73894545  2.86156125  2.86156125  2.86156125  2.88978872  2.88978872
  2.88978872  2.98108029  2.98108029  2.98108029  3.19406272  3.19406272
  3.32585494  3.32585494  3.32585494  3.4977496   3.55161874  3.55161874
  3.65704579  3.65704579  3.65704579  3.78407774  3.78407774  3.78407774
  3.87415428  3.87415428  3.87415428  4.07766107  5.43067352  5.43067352
  5.43067352  6.16139268  6.16836439  6.16836439  6.16836439  6.22990982
  6.22990982  6.22990982  6.31912463  6.41463513  6.41463513  6.41463513
  6.46985125  6.54574734  6.54574734  6.54574734  6.55248182  6.55248182
  6.72957253  6.72957253  6.72957253  6.85822975  6.85822975  6.85822975
  7.04882401  7.04882401  7.10995758  7.10995758  7.10995758  7.17339137
  7.17339137  7.17339137  7.17740745  8.27936584  8.27936584  8.27936584
  8.33329968  8.33329968  8.46458679  8.46458679  8.46458679  8.60542143
  8.60542143  8.60542143  8.64703149  8.64703149  8.64703149  8.70572889
  8.70572889  8.95293829  8.95293829  8.95293829  9.04841995  9.05231267
  9.05231267  9.09360241  9.09360241  9.09360241  9.2387157   9.2387157
  9.2387157   9.29883557  9.8691573   9.8691573   9.8691573  11.5718384 ]
E1 = -21.87677596547966  E_coul = 8.74160458004288
cycle= 2 E= -6.08490124421567  delta_E= -0.0153  |g|= 0.0477  |ddm|= 0.408
    CPU time for cycle= 2     77.05 sec, wall time      0.63 sec
  HOMO = -0.484325080874288  LUMO = 0.120124050964444
  mo_energy =
[-0.73105103 -0.48432508 -0.48432508 -0.48432508  0.12012405  0.14569337
  0.14569337  0.14569337  0.22084472  0.22084472  0.22084472  0.28748096
  0.28748096  0.36075507  0.36075507  0.36075507  0.3652589   0.42531295
  0.56957538  0.56957538  0.56957538  0.67424566  0.67424566  0.67424566
  0.80935977  0.80935977  0.80935977  0.86720007  0.86720007  0.86720007
  0.89310033  0.89310033  0.92570957  1.05299306  1.05299306  1.05299306
  1.11042286  1.11042286  1.11355538  1.11355538  1.11355538  1.12782314
  1.36053788  1.36053788  1.36053788  1.41295928  1.52855932  1.52855932
  1.52855932  1.67983972  1.67983972  1.67983972  2.00182509  2.00182509
  2.00182509  2.04709266  2.04709266  2.15088427  2.22431024  2.22431024
  2.22431024  2.32296728  2.32859278  2.32859278  2.32859278  2.47048203
  2.47048203  2.47048203  2.52327072  2.52327072  2.52327072  2.54313025
  2.54313025  2.63594417  2.63594417  2.63594417  2.6830705   2.75719029
  2.75719029  2.87623547  2.87623547  2.87623547  2.906289    2.906289
  2.906289    2.99859584  2.99859584  2.99859584  3.20937682  3.20937682
  3.34204191  3.34204191  3.34204191  3.51635688  3.56768354  3.56768354
  3.67699896  3.67699896  3.67699896  3.80334262  3.80334262  3.80334262
  3.89484479  3.89484479  3.89484479  4.10134919  5.45616974  5.45616974
  5.45616974  6.18439858  6.19161756  6.19161756  6.19161756  6.25300153
  6.25300153  6.25300153  6.34279399  6.44089274  6.44089274  6.44089274
  6.49786686  6.56998945  6.56998945  6.56998945  6.58158239  6.58158239
  6.7580352   6.7580352   6.7580352   6.88657571  6.88657571  6.88657571
  7.07562424  7.07562424  7.13939749  7.13939749  7.13939749  7.20354703
  7.20354703  7.20354703  7.20580443  8.30799175  8.30799175  8.30799175
  8.36093214  8.36093214  8.49262868  8.49262868  8.49262868  8.63578514
  8.63578514  8.63578514  8.67424457  8.67424457  8.67424457  8.73556248
  8.73556248  8.98160151  8.98160151  8.98160151  9.07738953  9.08061554
  9.08061554  9.12437117  9.12437117  9.12437117  9.26663387  9.26663387
  9.26663387  9.3314978   9.90390291  9.90390291  9.90390291 11.59978467]
E1 = -21.88094449370588  E_coul = 8.744072485618384
cycle= 3 E= -6.08660186686639  delta_E= -0.0017  |g|= 0.00587  |ddm|= 0.168
    CPU time for cycle= 3     77.24 sec, wall time      0.62 sec
  HOMO = -0.487414113490076  LUMO = 0.119439067129112
  mo_energy =
[-0.7339906  -0.48741411 -0.48741411 -0.48741411  0.11943907  0.14420723
  0.14420723  0.14420723  0.22029679  0.22029679  0.22029679  0.28545291
  0.28545291  0.35906965  0.35906965  0.35906965  0.36400434  0.42313895
  0.56760676  0.56760676  0.56760676  0.67273595  0.67273595  0.67273595
  0.80780999  0.80780999  0.80780999  0.86447041  0.86447041  0.86447041
  0.88974214  0.88974214  0.92348325  1.05126429  1.05126429  1.05126429
  1.10805825  1.10805825  1.11194839  1.11194839  1.11194839  1.12621216
  1.35732568  1.35732568  1.35732568  1.41107334  1.52671296  1.52671296
  1.52671296  1.67477484  1.67477484  1.67477484  1.99782726  1.99782726
  1.99782726  2.04428859  2.04428859  2.14582099  2.21989787  2.21989787
  2.21989787  2.31885868  2.32618139  2.32618139  2.32618139  2.46694965
  2.46694965  2.46694965  2.52038395  2.52038395  2.52038395  2.53892207
  2.53892207  2.63458423  2.63458423  2.63458423  2.68023719  2.75296029
  2.75296029  2.87446274  2.87446274  2.87446274  2.90434971  2.90434971
  2.90434971  2.99512455  2.99512455  2.99512455  3.20735452  3.20735452
  3.33832288  3.33832288  3.33832288  3.5137376   3.56430956  3.56430956
  3.67395057  3.67395057  3.67395057  3.79896869  3.79896869  3.79896869
  3.89093353  3.89093353  3.89093353  4.09743031  5.45008805  5.45008805
  5.45008805  6.18343303  6.19054957  6.19054957  6.19054957  6.25199152
  6.25199152  6.25199152  6.34153847  6.43902757  6.43902757  6.43902757
  6.49616366  6.56838576  6.56838576  6.56838576  6.57888245  6.57888245
  6.75457348  6.75457348  6.75457348  6.88387215  6.88387215  6.88387215
  7.07341324  7.07341324  7.13734842  7.13734842  7.13734842  7.20098913
  7.20098913  7.20098913  7.20410558  8.30758053  8.30758053  8.30758053
  8.36091753  8.36091753  8.49237295  8.49237295  8.49237295  8.63553177
  8.63553177  8.63553177  8.67430738  8.67430738  8.67430738  8.73527434
  8.73527434  8.98084905  8.98084905  8.98084905  9.07502577  9.07992696
  9.07992696  9.12305603  9.12305603  9.12305603  9.26603217  9.26603217
  9.26603217  9.32960072  9.90176193  9.90176193  9.90176193 11.59145687]
E1 = -21.882869795785414  E_coul = 8.745972033128357
cycle= 4 E= -6.08662762143595  delta_E= -2.58e-05  |g|= 0.00131  |ddm|= 0.0217
    CPU time for cycle= 4     45.45 sec, wall time      0.36 sec
  HOMO = -0.487280142314781  LUMO = 0.119462688679424
  mo_energy =
[-0.73374766 -0.48728014 -0.48728014 -0.48728014  0.11946269  0.14430436
  0.14430436  0.14430436  0.22033105  0.22033105  0.22033105  0.28561698
  0.28561698  0.359183    0.359183    0.359183    0.36400054  0.42319768
  0.56767717  0.56767717  0.56767717  0.67277528  0.67277528  0.67277528
  0.80788917  0.80788917  0.80788917  0.86459468  0.86459468  0.86459468
  0.88990282  0.88990282  0.92351093  1.0512792   1.0512792   1.0512792
  1.10821047  1.10821047  1.11201309  1.11201309  1.11201309  1.12635002
  1.35750611  1.35750611  1.35750611  1.41113842  1.52686085  1.52686085
  1.52686085  1.67499886  1.67499886  1.67499886  1.99804685  1.99804685
  1.99804685  2.04442279  2.04442279  2.14602464  2.22011859  2.22011859
  2.22011859  2.31909795  2.32630779  2.32630779  2.32630779  2.46713014
  2.46713014  2.46713014  2.520541    2.520541    2.520541    2.53924137
  2.53924137  2.63472145  2.63472145  2.63472145  2.68038642  2.75324582
  2.75324582  2.87460289  2.87460289  2.87460289  2.90457539  2.90457539
  2.90457539  2.99538363  2.99538363  2.99538363  3.20749944  3.20749944
  3.33850436  3.33850436  3.33850436  3.5139743   3.564498    3.564498
  3.67423147  3.67423147  3.67423147  3.79924776  3.79924776  3.79924776
  3.89119865  3.89119865  3.89119865  4.09774655  5.45056965  5.45056965
  5.45056965  6.18360849  6.19073915  6.19073915  6.19073915  6.2521741
  6.2521741   6.2521741   6.34173509  6.43927832  6.43927832  6.43927832
  6.49642661  6.56860305  6.56860305  6.56860305  6.57918338  6.57918338
  6.75493202  6.75493202  6.75493202  6.88416423  6.88416423  6.88416423
  7.0736496   7.0736496   7.13766798  7.13766798  7.13766798  7.2012857
  7.2012857   7.2012857   7.20440934  8.30780676  8.30780676  8.30780676
  8.36113947  8.36113947  8.49259523  8.49259523  8.49259523  8.63577722
  8.63577722  8.63577722  8.67454934  8.67454934  8.67454934  8.73551402
  8.73551402  8.98111536  8.98111536  8.98111536  9.07539558  9.08018403
  9.08018403  9.12333233  9.12333233  9.12333233  9.26630779  9.26630779
  9.26630779  9.32993534  9.90210762  9.90210762  9.90210762 11.59211076]
E1 = -21.88250000672704  E_coul = 8.745600618878502
cycle= 5 E= -6.08662924662743  delta_E= -1.63e-06  |g|= 0.000111  |ddm|= 0.00706
    CPU time for cycle= 5     45.53 sec, wall time      0.36 sec
  HOMO = -0.487290648775148  LUMO = 0.119456342586491
  mo_energy =
[-0.73377499 -0.48729065 -0.48729065 -0.48729065  0.11945634  0.14430591
  0.14430591  0.14430591  0.22033295  0.22033295  0.22033295  0.28561726
  0.28561726  0.35918013  0.35918013  0.35918013  0.36399903  0.42319441
  0.56767149  0.56767149  0.56767149  0.6727763   0.6727763   0.6727763
  0.80789449  0.80789449  0.80789449  0.86458808  0.86458808  0.86458808
  0.88989268  0.88989268  0.92350223  1.05127211  1.05127211  1.05127211
  1.10820819  1.10820819  1.11201196  1.11201196  1.11201196  1.1263545
  1.357502    1.357502    1.357502    1.41113731  1.52686767  1.52686767
  1.52686767  1.67498168  1.67498168  1.67498168  1.99804657  1.99804657
  1.99804657  2.04442252  2.04442252  2.14600735  2.22011284  2.22011284
  2.22011284  2.31909581  2.32630835  2.32630835  2.32630835  2.46712753
  2.46712753  2.46712753  2.52054105  2.52054105  2.52054105  2.53923986
  2.53923986  2.63473134  2.63473134  2.63473134  2.68038675  2.75323926
  2.75323926  2.87460941  2.87460941  2.87460941  2.90458484  2.90458484
  2.90458484  2.99538289  2.99538289  2.99538289  3.20750445  3.20750445
  3.33849943  3.33849943  3.33849943  3.51398126  3.56449613  3.56449613
  3.6742367   3.6742367   3.6742367   3.79924431  3.79924431  3.79924431
  3.89119919  3.89119919  3.89119919  4.0977531   5.4505613   5.4505613
  5.4505613   6.18362962  6.19076062  6.19076062  6.19076062  6.25219539
  6.25219539  6.25219539  6.34175579  6.43930075  6.43930075  6.43930075
  6.49645463  6.56862362  6.56862362  6.56862362  6.57920363  6.57920363
  6.7549463   6.7549463   6.7549463   6.88418371  6.88418371  6.88418371
  7.07366992  7.07366992  7.13769763  7.13769763  7.13769763  7.20130914
  7.20130914  7.20130914  7.20443953  8.30784449  8.30784449  8.30784449
  8.36117941  8.36117941  8.49263357  8.49263357  8.49263357  8.63582148
  8.63582148  8.63582148  8.67459105  8.67459105  8.67459105  8.73555691
  8.73555691  8.98115303  8.98115303  8.98115303  9.07542313  9.08022155
  9.08022155  9.1233693   9.1233693   9.1233693   9.2663459   9.2663459
  9.2663459   9.32997032  9.90214601  9.90214601  9.90214601 11.59208853]
E1 = -21.882511531752023  E_coul = 8.745612135189141
cycle= 6 E= -6.08662925534178  delta_E= -8.71e-09  |g|= 7.74e-06  |ddm|= 0.000999
    CPU time for cycle= 6     76.06 sec, wall time      0.60 sec
  HOMO = -0.487289627375007  LUMO = 0.119455226684743
  mo_energy =
[-0.73377472 -0.48728963 -0.48728963 -0.48728963  0.11945523  0.14430449
  0.14430449  0.14430449  0.22033206  0.22033206  0.22033206  0.2856163
  0.2856163   0.35917922  0.35917922  0.35917922  0.36399745  0.42319293
  0.56767038  0.56767038  0.56767038  0.67277484  0.67277484  0.67277484
  0.80789291  0.80789291  0.80789291  0.8645868   0.8645868   0.8645868
  0.88989136  0.88989136  0.92350103  1.05127112  1.05127112  1.05127112
  1.10820685  1.10820685  1.11201062  1.11201062  1.11201062  1.12635315
  1.35750065  1.35750065  1.35750065  1.41113569  1.52686568  1.52686568
  1.52686568  1.67498046  1.67498046  1.67498046  1.99804438  1.99804438
  1.99804438  2.04442061  2.04442061  2.14600595  2.22011092  2.22011092
  2.22011092  2.31909401  2.32630647  2.32630647  2.32630647  2.46712569
  2.46712569  2.46712569  2.52053929  2.52053929  2.52053929  2.53923783
  2.53923783  2.6347293   2.6347293   2.6347293   2.68038497  2.75323758
  2.75323758  2.87460755  2.87460755  2.87460755  2.90458298  2.90458298
  2.90458298  2.99538116  2.99538116  2.99538116  3.20750255  3.20750255
  3.33849775  3.33849775  3.33849775  3.51397928  3.56449444  3.56449444
  3.6742347   3.6742347   3.6742347   3.79924249  3.79924249  3.79924249
  3.89119713  3.89119713  3.89119713  4.09775071  5.45055935  5.45055935
  5.45055935  6.1836267   6.19075772  6.19075772  6.19075772  6.25219248
  6.25219248  6.25219248  6.34175289  6.43929772  6.43929772  6.43929772
  6.49645132  6.56862073  6.56862073  6.56862073  6.57920051  6.57920051
  6.75494346  6.75494346  6.75494346  6.88418065  6.88418065  6.88418065
  7.07366686  7.07366686  7.13769422  7.13769422  7.13769422  7.20130583
  7.20130583  7.20130583  7.20443615  8.30784077  8.30784077  8.30784077
  8.3611757   8.3611757   8.49262987  8.49262987  8.49262987  8.63581747
  8.63581747  8.63581747  8.6745874   8.6745874   8.6745874   8.73555298
  8.73555298  8.98114945  8.98114945  8.98114945  9.07541988  9.08021799
  9.08021799  9.12336554  9.12336554  9.12336554  9.26634241  9.26634241
  9.26634241  9.32996658  9.90214198  9.90214198  9.90214198 11.59208698]
E1 = -21.882510651596093  E_coul = 8.745611254993861
cycle= 7 E= -6.08662925538113  delta_E= -3.93e-11  |g|= 7.76e-07  |ddm|= 0.000107
    CPU time for cycle= 7     77.49 sec, wall time      0.61 sec
  HOMO = -0.487289738097305  LUMO = 0.11945529670948
  mo_energy =
[-0.73377486 -0.48728974 -0.48728974 -0.48728974  0.1194553   0.14430467
  0.14430467  0.14430467  0.22033216  0.22033216  0.22033216  0.28561643
  0.28561643  0.35917932  0.35917932  0.35917932  0.36399758  0.42319313
  0.56767046  0.56767046  0.56767046  0.67277498  0.67277498  0.67277498
  0.80789311  0.80789311  0.80789311  0.86458695  0.86458695  0.86458695
  0.88989147  0.88989147  0.92350111  1.05127118  1.05127118  1.05127118
  1.10820702  1.10820702  1.11201075  1.11201075  1.11201075  1.12635336
  1.35750085  1.35750085  1.35750085  1.41113583  1.52686592  1.52686592
  1.52686592  1.67498062  1.67498062  1.67498062  1.99804464  1.99804464
  1.99804464  2.04442082  2.04442082  2.14600611  2.22011115  2.22011115
  2.22011115  2.31909428  2.32630667  2.32630667  2.32630667  2.46712591
  2.46712591  2.46712591  2.52053951  2.52053951  2.52053951  2.53923812
  2.53923812  2.63472955  2.63472955  2.63472955  2.6803852   2.75323784
  2.75323784  2.87460779  2.87460779  2.87460779  2.90458326  2.90458326
  2.90458326  2.99538143  2.99538143  2.99538143  3.20750279  3.20750279
  3.33849796  3.33849796  3.33849796  3.51397956  3.56449467  3.56449467
  3.67423499  3.67423499  3.67423499  3.79924277  3.79924277  3.79924277
  3.89119741  3.89119741  3.89119741  4.09775104  5.4505597   5.4505597
  5.4505597   6.18362704  6.19075806  6.19075806  6.19075806  6.25219282
  6.25219282  6.25219282  6.34175323  6.4392981   6.4392981   6.4392981
  6.49645172  6.56862109  6.56862109  6.56862109  6.57920089  6.57920089
  6.75494385  6.75494385  6.75494385  6.88418103  6.88418103  6.88418103
  7.07366722  7.07366722  7.13769466  7.13769466  7.13769466  7.20130622
  7.20130622  7.20130622  7.20443659  8.30784121  8.30784121  8.30784121
  8.36117615  8.36117615  8.49263031  8.49263031  8.49263031  8.63581795
  8.63581795  8.63581795  8.67458787  8.67458787  8.67458787  8.73555344
  8.73555344  8.9811499   8.9811499   8.9811499   9.07542034  9.08021843
  9.08021843  9.12336599  9.12336599  9.12336599  9.26634286  9.26634286
  9.26634286  9.32996704  9.90214246  9.90214246  9.90214246 11.59208736]
E1 = -21.88251054686825  E_coul = 8.7456111502656
Extra cycle  E= -6.08662925538154  delta_E= -4.19e-13  |g|= 2.16e-07  |ddm|= 1.11e-05
    CPU time for scf_cycle    673.84 sec, wall time      5.66 sec
    CPU time for SCF    673.84 sec, wall time      5.66 sec
converged SCF energy = -6.08662925538154
