#INFO: **** input file is /home/nkousuke/lustre/toBeSync/turboRVB/05turbo-genius-development/turbogenius_paper/04data/sanity_checks/03pyscf_HF_turbo_VMC_via_trexio/00open_boundary/results/P/pyscf-HF-workflow/run.py ****

from pyscf_wrapper import Pyscf_wrapper

# input variables
pyscf_chkfile="pyscf.chk"
structure_file="P.xyz"

# input variables
omp_num_threads=128
charge=0
spin=3
basis="ccecp-ccpvqz"
ecp="ccecp"
scf_method="HF"
dft_xc="NA"
solver_newton=False
MP2_flag=False
CCSD_flag=False
pyscf_output="out.pyscf"
twist_average=False
exp_to_discard=0.0
kpt=[0.0, 0.0, 0.0]
kpt_grid=[1, 1, 1]
smearing_method="fermi"
smearing_sigma=0.0

pyscf_calc=Pyscf_wrapper(
                        structure_file=structure_file,
                        chkfile=pyscf_chkfile,
                        )

pyscf_calc.run_pyscf(
                  omp_num_threads=omp_num_threads,
                  charge=charge,
                  spin=spin,
                  basis=basis,
                  ecp=ecp,
                  scf_method=scf_method,
                  dft_xc=dft_xc,
                  solver_newton=solver_newton,
                  MP2_flag=MP2_flag,
                  CCSD_flag=CCSD_flag,
                  pyscf_output=pyscf_output,
                  twist_average=twist_average,
                  exp_to_discard=exp_to_discard,
                  kpt=kpt,
                  kpt_grid=kpt_grid,
                  smearing_method=smearing_method,
                  smearing_sigma=smearing_sigma
                  )
                #INFO: ******************** input file end ********************


System: uname_result(system='Linux', node='spcc-145', release='5.4.0-66-generic', version='#74-Ubuntu SMP Wed Jan 27 22:54:38 UTC 2021', machine='x86_64', processor='x86_64')  Threads 128
Python 3.7.3 (default, Mar 27 2019, 22:11:17) 
[GCC 7.3.0]
numpy 1.20.1  scipy 1.7.3
Date: Mon Dec 19 18:04:17 2022
PySCF version 2.0.1
PySCF path  /home/nkousuke/application/anaconda3/lib/python3.7/site-packages/pyscf

[CONFIG] conf_file /home/nkousuke/.pyscf_conf.py
[INPUT] verbose = 5
[INPUT] max_memory = 506575.98046875 
[INPUT] num. atoms = 1
[INPUT] num. electrons = 5
[INPUT] charge = 0
[INPUT] spin (= nelec alpha-beta = 2S) = 3
[INPUT] symmetry False subgroup None
[INPUT] Mole.unit = A
[INPUT]  1 P      0.000000000000   0.000000000000   0.000000000000 AA    0.000000000000   0.000000000000   0.000000000000 Bohr
[INPUT] ---------------- BASIS SET ---------------- 
[INPUT] l, kappa, [nprim/nctr], expnt,             c_1 c_2 ...
[INPUT] P
[INPUT] 0    0    [10   /1   ]  5.054268          0.001781
                                3.094719          0.077653
                                1.894891          -0.312344
                                1.160239          -0.045804
                                0.710412          -0.029427
                                0.434984          0.31856
                                0.26634           0.309169
                                0.16308           0.376899
                                0.099853          0.152113
                                0.06114           0.054943
[INPUT] 0    0    [1    /1   ]  0.636005             1
[INPUT] 0    0    [1    /1   ]  0.25859              1
[INPUT] 0    0    [1    /1   ]  0.105139             1
[INPUT] 1    0    [10   /1   ]  5.861284          -0.00316
                                3.406365          0.007462
                                1.979655          -0.060893
                                1.150503          0.015297
                                0.668631          0.123431
                                0.388584          0.257276
                                0.225831          0.305131
                                0.131245          0.276016
                                0.076275          0.134133
                                0.044328          0.040073
[INPUT] 1    0    [1    /1   ]  1.653678             1
[INPUT] 1    0    [1    /1   ]  0.679946             1
[INPUT] 1    0    [1    /1   ]  0.279575             1
[INPUT] 2    0    [1    /1   ]  1.375779             1
[INPUT] 2    0    [1    /1   ]  0.502887             1
[INPUT] 2    0    [1    /1   ]  0.18382              1
[INPUT] 3    0    [1    /1   ]  0.72673              1
[INPUT] 3    0    [1    /1   ]  0.284724             1
[INPUT] 4    0    [1    /1   ]  0.59499              1

nuclear repulsion = 0
number of shells = 14
number of NR pGTOs = 90
number of NR cGTOs = 54
basis = ccecp-ccpvqz
ecp = ccecp
CPU time:         6.09


******** <class 'pyscf.scf.rohf.ROHF'> ********
method = ROHF-RHF
initial guess = minao
damping factor = 0
level_shift factor = 0
DIIS = <class 'pyscf.scf.diis.CDIIS'>
diis_start_cycle = 1
diis_space = 8
SCF conv_tol = 1e-09
SCF conv_tol_grad = None
SCF max_cycles = 200
direct_scf = True
direct_scf_tol = 1e-13
chkfile to save SCF result = pyscf.chk
max_memory 506575 MB (current use 106 MB)
num. doubly occ = 1  num. singly occ = 3
Set gradient conv threshold to 3.16228e-05
E1 = -10.10811400535511  Ecoul = 4.11963927377403
init E= -5.98847473158108
cond(S) = 738.7547058745384
    CPU time for initialize scf    101.32 sec, wall time      1.02 sec
  HOMO = -0.161241408762127  LUMO = 0.327101053040442
                  Roothaan           | alpha              | beta
  Highest 2-occ = -0.698937749896383 | -0.698937749896383 | -0.698937749896383
  Lowest 0-occ =   0.327101053040442 |  0.327101053040444 |  0.327101053040444
  1-occ =         -0.161241408762127 | -0.161241408762127 | -0.161241408762127
  1-occ =         -0.161241408762127 | -0.161241408762127 | -0.161241408762127
  1-occ =         -0.161241408762127 | -0.161241408762126 | -0.161241408762126
  Roothaan mo_energy =
[-0.69893775 -0.16124141 -0.16124141 -0.16124141  0.32710105  0.39967066
  0.39967066  0.39967066  0.39967066  0.39967066  0.41146739  0.41146739
  0.41146739  1.05053981  1.05053981  1.05053981  1.05053981  1.05053981
  1.05053981  1.05053981  1.24824237  1.24824237  1.24824237  1.24824237
  1.24824237  1.83657244  1.836982    1.836982    1.836982    2.83903526
  2.83903526  2.83903526  2.83903526  2.83903526  2.83903526  2.83903526
  2.83903526  2.83903526  2.95766219  2.95766219  2.95766219  2.95766219
  2.95766219  2.95766219  2.95766219  3.55981558  3.55981558  3.55981558
  3.55981558  3.55981558  7.11435456  7.11435456  7.11435456 11.95044439]
E1 = -9.941762916832667  Ecoul = 3.6145062904746936
cycle= 1 E= -6.32725662635797  delta_E= -0.339  |g|= 0.0992  |ddm|= 2.27
    CPU time for cycle= 1     20.95 sec, wall time      0.17 sec
  HOMO = -0.197048529209876  LUMO = 0.305888589435047
                  Roothaan           | alpha              | beta
  Highest 2-occ = -0.740842141234895 | -0.872856864760612 | -0.608827417709179
  Lowest 0-occ =   0.305888589435047 |  0.275758376659722 |  0.336018802210366
  1-occ =         -0.197048529209877 | -0.413823095745542 | 0.0367774181209648
  1-occ =         -0.197048529209876 | -0.413823095745543 |  0.036777418120965
  1-occ =         -0.197048529209876 | -0.413823095745542 | 0.0367774181209652
  Roothaan mo_energy =
[-0.74084214 -0.19704853 -0.19704853 -0.19704853  0.30588859  0.37362085
  0.37362085  0.37362085  0.37362085  0.37362085  0.39903478  0.39903478
  0.39903478  1.02602356  1.02602356  1.02602356  1.02602356  1.02602356
  1.02602356  1.02602356  1.20284989  1.20284989  1.20284989  1.20284989
  1.20284989  1.78870445  1.78983817  1.78983817  1.78983817  2.7955251
  2.7955251   2.7955251   2.7955251   2.7955251   2.7955251   2.7955251
  2.7955251   2.7955251   2.90378134  2.90378134  2.90378134  2.90378134
  2.90378134  2.90378134  2.90378134  3.49531242  3.49531242  3.49531242
  3.49531242  3.49531242  7.03947294  7.03947294  7.03947294 11.87032932]
E1 = -10.12732013186876  Ecoul = 3.7866747971902743
cycle= 2 E= -6.34064533467849  delta_E= -0.0134  |g|= 0.0292  |ddm|= 1.39
    CPU time for cycle= 2     15.75 sec, wall time      0.12 sec
  HOMO = -0.163431242279378  LUMO = 0.322839876368306
                  Roothaan           | alpha              | beta
  Highest 2-occ = -0.706435717040816 |  -0.83844081327292 | -0.551695805746901
  Lowest 0-occ =   0.322839876368306 |  0.301965811450656 |   0.35489867983898
  1-occ =          -0.16343124227938 | -0.388037847278713 | 0.0825262073339454
  1-occ =         -0.163431242279378 | -0.388037847278712 | 0.0825262073339457
  1-occ =         -0.163431242279378 | -0.388037847278713 | 0.0825262073339453
  Roothaan mo_energy =
[-0.70643572 -0.16343124 -0.16343124 -0.16343124  0.32283988  0.39531933
  0.39531933  0.39531933  0.39531933  0.39531933  0.40625317  0.40625317
  0.40625317  1.04620691  1.04620691  1.04620691  1.04620691  1.04620691
  1.04620691  1.04620691  1.2411401   1.2411401   1.2411401   1.2411401
  1.2411401   1.82862513  1.82950661  1.82950661  1.82950661  2.83175815
  2.83175815  2.83175815  2.83175815  2.83175815  2.83175815  2.83175815
  2.83175815  2.83175815  2.94921389  2.94921389  2.94921389  2.94921389
  2.94921389  2.94921389  2.94921389  3.55034473  3.55034473  3.55034473
  3.55034473  3.55034473  7.10381817  7.10381817  7.10381817 11.93934973]
E1 = -10.111224861026582  Ecoul = 3.770289386331369
cycle= 3 E= -6.34093547469521  delta_E= -0.00029  |g|= 0.00858  |ddm|= 0.0858
    CPU time for cycle= 3     19.96 sec, wall time      0.16 sec
  HOMO = -0.155995124706554  LUMO = 0.327683703216245
                  Roothaan           | alpha              | beta
  Highest 2-occ =  -0.69791167300352 | -0.841405893322974 | -0.555785070153463
  Lowest 0-occ =   0.327683703216245 |  0.300480916776825 |  0.353708136428047
  1-occ =         -0.155995124706556 | -0.391158606100581 | 0.0786729327371127
  1-occ =         -0.155995124706555 | -0.391158606100581 | 0.0786729327371134
  1-occ =         -0.155995124706554 |  -0.39115860610058 | 0.0786729327371135
  Roothaan mo_energy =
[-0.69791167 -0.15599512 -0.15599512 -0.15599512  0.3276837   0.40037163
  0.40037163  0.40037163  0.40037163  0.40037163  0.40758274  0.40758274
  0.40758274  1.05123298  1.05123298  1.05123298  1.05123298  1.05123298
  1.05123298  1.05123298  1.24941757  1.24941757  1.24941757  1.24941757
  1.24941757  1.83780145  1.83813114  1.83813114  1.83813114  2.84021684
  2.84021684  2.84021684  2.84021684  2.84021684  2.84021684  2.84021684
  2.84021684  2.84021684  2.95905082  2.95905082  2.95905082  2.95905082
  2.95905082  2.95905082  2.95905082  3.56138019  3.56138019  3.56138019
  3.56138019  3.56138019  7.11609585  7.11609585  7.11609585 11.95226871]
E1 = -10.107852572264449  Ecoul = 3.7668863109284163
cycle= 4 E= -6.34096626133603  delta_E= -3.08e-05  |g|= 0.00075  |ddm|= 0.0342
    CPU time for cycle= 4     19.95 sec, wall time      0.15 sec
  HOMO = -0.156966421920627  LUMO = 0.327104473067248
                  Roothaan           | alpha              | beta
  Highest 2-occ = -0.698924156621886 | -0.841886575833325 | -0.556079071326163
  Lowest 0-occ =   0.327104473067248 |   0.30050208911792 |  0.353685467634743
  1-occ =         -0.156966421920627 | -0.392038144908011 | 0.0779471671825342
  1-occ =         -0.156966421920627 | -0.392038144908009 | 0.0779471671825334
  1-occ =         -0.156966421920627 | -0.392038144908009 | 0.0779471671825341
  Roothaan mo_energy =
[-0.69892416 -0.15696642 -0.15696642 -0.15696642  0.32710447  0.39968087
  0.39968087  0.39968087  0.39968087  0.39968087  0.40729479  0.40729479
  0.40729479  1.05054923  1.05054923  1.05054923  1.05054923  1.05054923
  1.05054923  1.05054923  1.24825576  1.24825576  1.24825576  1.24825576
  1.24825576  1.83658571  1.83691491  1.83691491  1.83691491  2.83905053
  2.83905053  2.83905053  2.83905053  2.83905053  2.83905053  2.83905053
  2.83905053  2.83905053  2.95767883  2.95767883  2.95767883  2.95767883
  2.95767883  2.95767883  2.95767883  3.5598329   3.5598329   3.5598329
  3.5598329   3.5598329   7.11436966  7.11436966  7.11436966 11.95046379]
E1 = -10.108095782302607  Ecoul = 3.7671293645758945
cycle= 5 E= -6.34096641772671  delta_E= -1.56e-07  |g|= 2.8e-05  |ddm|= 0.00292
    CPU time for cycle= 5     19.45 sec, wall time      0.15 sec
  HOMO = -0.156989987744691  LUMO = 0.327099991108489
                  Roothaan           | alpha              | beta
  Highest 2-occ = -0.698940551567766 |  -0.84184662915416 | -0.556040533519199
  Lowest 0-occ =   0.327099991108489 |  0.300503955944645 |  0.353692209813226
  1-occ =         -0.156989987744693 | -0.391983296946439 | 0.0780030124836668
  1-occ =         -0.156989987744692 | -0.391983296946439 | 0.0780030124836655
  1-occ =         -0.156989987744691 | -0.391983296946439 | 0.0780030124836659
  Roothaan mo_energy =
[-0.69894055 -0.15698999 -0.15698999 -0.15698999  0.32709999  0.39966909
  0.39966909  0.39966909  0.39966909  0.39966909  0.40729853  0.40729853
  0.40729853  1.05053834  1.05053834  1.05053834  1.05053834  1.05053834
  1.05053834  1.05053834  1.24824014  1.24824014  1.24824014  1.24824014
  1.24824014  1.83657026  1.83689813  1.83689813  1.83689813  2.83903288
  2.83903288  2.83903288  2.83903288  2.83903288  2.83903288  2.83903288
  2.83903288  2.83903288  2.95765947  2.95765947  2.95765947  2.95765947
  2.95765947  2.95765947  2.95765947  3.55981253  3.55981253  3.55981253
  3.55981253  3.55981253  7.11434746  7.11434746  7.11434746 11.95044071]
E1 = -10.10811743949952  Ecoul = 3.7671510211936123
cycle= 6 E= -6.34096641830591  delta_E= -5.79e-10  |g|= 3.19e-06  |ddm|= 0.000254
    CPU time for cycle= 6     24.56 sec, wall time      0.19 sec
  HOMO = -0.15698574643431  LUMO = 0.327101470662884
                  Roothaan           | alpha              | beta
  Highest 2-occ =  -0.69893687836007 | -0.841841867321042 | -0.556031889399097
  Lowest 0-occ =   0.327101470662884 |  0.300507898809147 |  0.353695042516619
  1-occ =         -0.156985746434312 | -0.391980546799736 | 0.0780086332898027
  1-occ =          -0.15698574643431 | -0.391980546799735 | 0.0780086332898029
  1-occ =          -0.15698574643431 | -0.391980546799736 | 0.0780086332898023
  Roothaan mo_energy =
[-0.69893688 -0.15698575 -0.15698575 -0.15698575  0.32710147  0.39967122
  0.39967122  0.39967122  0.39967122  0.39967122  0.40729793  0.40729793
  0.40729793  1.05054033  1.05054033  1.05054033  1.05054033  1.05054033
  1.05054033  1.05054033  1.24824336  1.24824336  1.24824336  1.24824336
  1.24824336  1.83657347  1.83690153  1.83690153  1.83690153  2.8390362
  2.8390362   2.8390362   2.8390362   2.8390362   2.8390362   2.8390362
  2.8390362   2.8390362   2.95766337  2.95766337  2.95766337  2.95766337
  2.95766337  2.95766337  2.95766337  3.559817    3.559817    3.559817
  3.559817    3.559817    7.11435257  7.11435257  7.11435257 11.95044613]
E1 = -10.108112682025894  Ecoul = 3.7671462637115543
Extra cycle  E= -6.34096641831434  delta_E= -8.43e-12  |g|= 5.46e-07  |ddm|= 2.99e-05
    CPU time for scf_cycle    239.85 sec, wall time      2.11 sec
    CPU time for SCF    239.85 sec, wall time      2.11 sec
converged SCF energy = -6.34096641831434
