#INFO: **** input file is /home/nkousuke/lustre/toBeSync/turboRVB/05turbo-genius-development/turbogenius_paper/04data/sanity_checks/03pyscf_HF_turbo_VMC_via_trexio/00open_boundary/results/HF/pyscf-HF-workflow/run.py ****

from pyscf_wrapper import Pyscf_wrapper

# input variables
pyscf_chkfile="pyscf.chk"
structure_file="HF.xyz"

# input variables
omp_num_threads=128
charge=0
spin=0
basis="ccecp-ccpvqz"
ecp="ccecp"
scf_method="HF"
dft_xc="NA"
solver_newton=False
MP2_flag=False
CCSD_flag=False
pyscf_output="out.pyscf"
twist_average=False
exp_to_discard=0.0
kpt=[0.0, 0.0, 0.0]
kpt_grid=[1, 1, 1]
smearing_method="fermi"
smearing_sigma=0.0

pyscf_calc=Pyscf_wrapper(
                        structure_file=structure_file,
                        chkfile=pyscf_chkfile,
                        )

pyscf_calc.run_pyscf(
                  omp_num_threads=omp_num_threads,
                  charge=charge,
                  spin=spin,
                  basis=basis,
                  ecp=ecp,
                  scf_method=scf_method,
                  dft_xc=dft_xc,
                  solver_newton=solver_newton,
                  MP2_flag=MP2_flag,
                  CCSD_flag=CCSD_flag,
                  pyscf_output=pyscf_output,
                  twist_average=twist_average,
                  exp_to_discard=exp_to_discard,
                  kpt=kpt,
                  kpt_grid=kpt_grid,
                  smearing_method=smearing_method,
                  smearing_sigma=smearing_sigma
                  )
                #INFO: ******************** input file end ********************


System: uname_result(system='Linux', node='spcc-238', release='5.4.0-66-generic', version='#74-Ubuntu SMP Wed Jan 27 22:54:38 UTC 2021', machine='x86_64', processor='x86_64')  Threads 128
Python 3.7.3 (default, Mar 27 2019, 22:11:17) 
[GCC 7.3.0]
numpy 1.20.1  scipy 1.7.3
Date: Mon Dec 19 18:04:52 2022
PySCF version 2.0.1
PySCF path  /home/nkousuke/application/anaconda3/lib/python3.7/site-packages/pyscf

[CONFIG] conf_file /home/nkousuke/.pyscf_conf.py
[INPUT] verbose = 5
[INPUT] max_memory = 506302.171875 
[INPUT] num. atoms = 2
[INPUT] num. electrons = 8
[INPUT] charge = 0
[INPUT] spin (= nelec alpha-beta = 2S) = 0
[INPUT] symmetry False subgroup None
[INPUT] Mole.unit = A
[INPUT]  1 F      0.000000000000   0.000000000000   0.091680000000 AA    0.000000000000   0.000000000000   0.173250091100 Bohr
[INPUT]  2 H      0.000000000000   0.000000000000  -0.825120000000 AA    0.000000000000   0.000000000000  -1.559250819901 Bohr
[INPUT] ---------------- BASIS SET ---------------- 
[INPUT] l, kappa, [nprim/nctr], expnt,             c_1 c_2 ...
[INPUT] H
[INPUT] 0    0    [8    /1   ]  23.843185         0.0041149
                                10.212443         0.0104644
                                4.374164          0.0280111
                                1.873529          0.0758862
                                0.802465          0.1821062
                                0.343709          0.3485214
                                0.147217          0.3782313
                                0.063055          0.1164241
[INPUT] 0    0    [1    /1   ]  0.081856             1
[INPUT] 0    0    [1    /1   ]  0.233254             1
[INPUT] 0    0    [1    /1   ]  0.664673             1
[INPUT] 1    0    [1    /1   ]  0.284469             1
[INPUT] 1    0    [1    /1   ]  0.847159             1
[INPUT] 1    0    [1    /1   ]  2.522868             1
[INPUT] 2    0    [1    /1   ]  0.665279             1
[INPUT] 2    0    [1    /1   ]  2.048739             1
[INPUT] 3    0    [1    /1   ]  1.42146              1
[INPUT] F
[INPUT] 0    0    [10   /1   ]  84.048652         -2.8e-06
                                41.094617         -0.0003543
                                20.092738         0.0184088
                                9.824112          -0.1277661
                                4.803386          -0.0702872
                                2.34856           0.1571604
                                1.148301          0.3769012
                                0.561449          0.4095165
                                0.274514          0.1970893
                                0.13422           0.0243482
[INPUT] 0    0    [1    /1   ]  1.705653             1
[INPUT] 0    0    [1    /1   ]  1.048013             1
[INPUT] 0    0    [1    /1   ]  0.294345             1
[INPUT] 1    0    [10   /1   ]  31.642619         0.0029673
                                16.243233         0.0298049
                                8.338204          0.0669489
                                4.280284          0.133779
                                2.197215          0.2148312
                                1.127906          0.2664862
                                0.578992          0.2618954
                                0.297216          0.1920217
                                0.152571          0.0828465
                                0.07832           0.0133046
[INPUT] 1    0    [1    /1   ]  1.650688             1
[INPUT] 1    0    [1    /1   ]  0.64724              1
[INPUT] 1    0    [1    /1   ]  0.205806             1
[INPUT] 2    0    [1    /1   ]  4.998085             1
[INPUT] 2    0    [1    /1   ]  1.724392             1
[INPUT] 2    0    [1    /1   ]  0.587354             1
[INPUT] 3    0    [1    /1   ]  3.694285             1
[INPUT] 3    0    [1    /1   ]  1.178147             1
[INPUT] 4    0    [1    /1   ]  2.406583             1

nuclear repulsion = 4.0404019158377
number of shells = 24
number of NR pGTOs = 127
number of NR cGTOs = 84
basis = ccecp-ccpvqz
ecp = ccecp
CPU time:         6.33


******** <class 'pyscf.scf.hf.RHF'> ********
method = RHF
initial guess = minao
damping factor = 0
level_shift factor = 0
DIIS = <class 'pyscf.scf.diis.CDIIS'>
diis_start_cycle = 1
diis_space = 8
SCF conv_tol = 1e-09
SCF conv_tol_grad = None
SCF max_cycles = 200
direct_scf = True
direct_scf_tol = 1e-13
chkfile to save SCF result = pyscf.chk
max_memory 506302 MB (current use 106 MB)
Set gradient conv threshold to 3.16228e-05
E1 = -49.07293012148624  E_coul = 20.69608626117553
init E= -24.336441944473
cond(S) = 14571.923174659714
    CPU time for initialize scf     71.51 sec, wall time      0.63 sec
  HOMO = -0.65748510601172  LUMO = 0.0727611309989933
  mo_energy =
[-1.79599579 -0.82431442 -0.65748511 -0.65748511  0.07276113  0.39599065
  0.46370524  0.59927957  0.59927957  0.69648636  0.69648636  0.90260162
  1.2727367   1.45577083  1.51564103  1.51564103  1.81099394  1.81099394
  2.01012164  2.29434901  2.29434901  2.42683617  2.42683617  2.63289435
  2.7266057   2.7266057   3.27511815  3.27511815  3.48434083  3.67747297
  4.52738258  4.52738258  4.78369491  4.78369491  5.17136715  5.23033013
  5.23033013  5.32458881  5.32458881  5.50624281  5.87133246  5.87133246
  6.26511864  6.26511864  6.32057257  7.25368126  7.25368126  7.68486283
  7.73318604  7.73318604  7.96167366  8.11128709  8.11128709  8.3389472
  8.3389472   9.61119458  9.61119458  9.67277375 10.21047296 10.82179658
 10.82179658 12.00318976 12.00318976 12.12952172 12.12952172 13.01304665
 13.01304665 13.63139054 13.81175191 13.98148473 13.98148473 15.60162032
 15.60162032 15.8783127  15.8783127  16.16877854 16.16877854 16.36534823
 16.36534823 17.20412657 17.59845986 17.59845986 19.29487865 34.01798314]
E1 = -50.418316407940566  E_coul = 21.809003710564088
cycle= 1 E= -24.5689107815388  delta_E= -0.232  |g|= 0.402  |ddm|= 2.02
    CPU time for cycle= 1     74.26 sec, wall time      0.58 sec
  HOMO = -0.575384751927112  LUMO = 0.0997601977901762
  mo_energy =
[-1.55560862 -0.7127508  -0.57538475 -0.57538475  0.0997602   0.42340195
  0.52882914  0.61316376  0.61316376  0.72062021  0.72062021  0.91493803
  1.25241551  1.54648212  1.58832516  1.58832516  1.87766302  1.87766302
  2.08450784  2.26465476  2.26465476  2.33887306  2.33887306  2.59414847
  2.79391909  2.79391909  3.36077026  3.36077026  3.46418049  3.78596965
  4.66427981  4.66427981  4.88255292  4.88255292  5.296342    5.36975151
  5.36975151  5.52774433  5.52774433  5.65632017  5.99485653  5.99485653
  6.18854599  6.18854599  6.32524006  7.2143548   7.2143548   7.542211
  7.59763804  7.59763804  7.9968473   7.9968473   8.01750039  8.26316047
  8.26316047  9.62311525  9.62311525  9.691611   10.34634795 11.05892508
 11.05892508 12.21927222 12.21927222 12.32876197 12.32876197 13.18156598
 13.18156598 13.76340752 13.99114673 14.15011767 14.15011767 15.87309996
 15.87309996 16.14040324 16.14040324 16.46141538 16.46141538 16.63089386
 16.63089386 17.41765494 17.82735859 17.82735859 19.49835268 34.36548094]
E1 = -49.543010622537864  E_coul = 20.912045351721726
cycle= 2 E= -24.5905633549784  delta_E= -0.0217  |g|= 0.228  |ddm|= 0.643
    CPU time for cycle= 2     65.05 sec, wall time      0.52 sec
  HOMO = -0.659908995723816  LUMO = 0.103375983186217
  mo_energy =
[-1.63487272 -0.78156241 -0.659909   -0.659909    0.10337598  0.42686691
  0.50423022  0.61151745  0.61151745  0.70482409  0.70482409  0.90974688
  1.25615358  1.50918361  1.56064644  1.56064644  1.84921249  1.84921249
  2.0535607   2.2713405   2.2713405   2.36379355  2.36379355  2.59557279
  2.75887373  2.75887373  3.31684883  3.31684883  3.46187188  3.73407379
  4.61333104  4.61333104  4.84119961  4.84119961  5.23509481  5.30164053
  5.30164053  5.43369315  5.43369315  5.58181413  5.93692397  5.93692397
  6.21391082  6.21391082  6.31147819  7.22202971  7.22202971  7.58023259
  7.63326306  7.63326306  7.98140625  8.03646166  8.03646166  8.29071775
  8.29071775  9.60493622  9.60493622  9.67379887 10.25833606 10.92342751
 10.92342751 12.1267616  12.1267616  12.23865932 12.23865932 13.10025283
 13.10025283 13.68544486 13.8940452  14.06164633 14.06164633 15.73607638
 15.73607638 16.00205188 16.00205188 16.30027732 16.30027732 16.48712614
 16.48712614 17.29143043 17.69248977 17.69248977 19.37258531 34.14943792]
E1 = -49.95971938217095  E_coul = 21.322358172154594
cycle= 3 E= -24.5969592941787  delta_E= -0.0064  |g|= 0.0378  |ddm|= 0.24
    CPU time for cycle= 3     54.75 sec, wall time      0.43 sec
  HOMO = -0.648078493459407  LUMO = 0.106507247717476
  mo_energy =
[-1.62072673 -0.76866044 -0.64807849 -0.64807849  0.10650725  0.43390648
  0.50403892  0.61649664  0.61649664  0.70650684  0.70650684  0.91519816
  1.26473932  1.51259977  1.56639664  1.56639664  1.8553117   1.8553117
  2.05747864  2.2769987   2.2769987   2.37084673  2.37084673  2.60258408
  2.76683838  2.76683838  3.3253249   3.3253249   3.47403509  3.74265547
  4.6208054   4.6208054   4.85076022  4.85076022  5.24325464  5.31562449
  5.31562449  5.44540354  5.44540354  5.59649426  5.94398282  5.94398282
  6.22368805  6.22368805  6.32236207  7.23179345  7.23179345  7.59160625
  7.64413388  7.64413388  7.99912382  8.04994425  8.04994425  8.30586635
  8.30586635  9.61919511  9.61919511  9.68887026 10.2750263  10.94584019
 10.94584019 12.13970954 12.13970954 12.25183244 12.25183244 13.11473949
 13.11473949 13.70601418 13.91058931 14.07898782 14.07898782 15.75674626
 15.75674626 16.02170964 16.02170964 16.32495273 16.32495273 16.50589428
 16.50589428 17.31303224 17.71537792 17.71537792 19.39583024 34.18343126]
E1 = -49.902474380326304  E_coul = 21.264895149602687
cycle= 4 E= -24.5971773148859  delta_E= -0.000218  |g|= 0.00616  |ddm|= 0.0392
    CPU time for cycle= 4     37.89 sec, wall time      0.30 sec
  HOMO = -0.648851760269307  LUMO = 0.107109453886064
  mo_energy =
[-1.62081697 -0.76739882 -0.64885176 -0.64885176  0.10710945  0.43518777
  0.50383799  0.61691014  0.61691014  0.70652733  0.70652733  0.9157824
  1.26616761  1.51252544  1.56654113  1.56654113  1.85564035  1.85564035
  2.05791709  2.27809457  2.27809457  2.37282537  2.37282537  2.60408023
  2.76725429  2.76725429  3.32544504  3.32544504  3.47569734  3.74303203
  4.62069938  4.62069938  4.85091766  4.85091766  5.24371603  5.31590834
  5.31590834  5.44526824  5.44526824  5.59701298  5.94427065  5.94427065
  6.22585533  6.22585533  6.32439311  7.23366036  7.23366036  7.59526577
  7.647526    7.647526    8.00019181  8.05328668  8.05328668  8.30892761
  8.30892761  9.62125734  9.62125734  9.6910696  10.27630954 10.94594975
 10.94594975 12.13973785 12.13973785 12.25171641 12.25171641 13.11462529
 13.11462529 13.70702763 13.91090255 14.07880836 14.07880836 15.7570214
 15.7570214  16.02166468 16.02166468 16.32515642 16.32515642 16.50586169
 16.50586169 17.31270725 17.71543595 17.71543595 19.39609914 34.18342071]
E1 = -49.90278186063707  E_coul = 21.265186332837516
cycle= 5 E= -24.5971936119619  delta_E= -1.63e-05  |g|= 0.00118  |ddm|= 0.0125
    CPU time for cycle= 5     30.76 sec, wall time      0.24 sec
  HOMO = -0.64907611130995  LUMO = 0.107135451320868
  mo_energy =
[-1.62088524 -0.7671695  -0.64907611 -0.64907611  0.10713545  0.43518019
  0.50383361  0.61683299  0.61683299  0.70651425  0.70651425  0.91582827
  1.26619961  1.51249435  1.56654196  1.56654196  1.85559576  1.85559576
  2.05788353  2.27811442  2.27811442  2.37291692  2.37291692  2.60416706
  2.7671978   2.7671978   3.32540433  3.32540433  3.4757272   3.74299924
  4.62069414  4.62069414  4.8508674   4.8508674   5.24358319  5.31580402
  5.31580402  5.44518972  5.44518972  5.596928    5.94416221  5.94416221
  6.22590039  6.22590039  6.32441833  7.23371701  7.23371701  7.59547292
  7.64771633  7.64771633  8.00012687  8.05336562  8.05336562  8.30895463
  8.30895463  9.62127649  9.62127649  9.6910545  10.27618246 10.94584098
 10.94584098 12.13979377 12.13979377 12.25165316 12.25165316 13.11450393
 13.11450393 13.70692843 13.91068971 14.07864323 14.07864323 15.75705031
 15.75705031 16.02151668 16.02151668 16.32510301 16.32510301 16.50558074
 16.50558074 17.31243968 17.71524766 17.71524766 19.3958044  34.1831948 ]
E1 = -49.90295255261567  E_coul = 21.26535622906513
cycle= 6 E= -24.5971944077128  delta_E= -7.96e-07  |g|= 0.000179  |ddm|= 0.00259
    CPU time for cycle= 6     40.95 sec, wall time      0.32 sec
  HOMO = -0.64910301226049  LUMO = 0.107141855646891
  mo_energy =
[-1.62088108 -0.7671283  -0.64910301 -0.64910301  0.10714186  0.43519085
  0.50383426  0.61683105  0.61683105  0.70651015  0.70651015  0.91584281
  1.26622354  1.51249293  1.56654212  1.56654212  1.85559382  1.85559382
  2.05788387  2.27812285  2.27812285  2.3729363   2.3729363   2.60418679
  2.76719936  2.76719936  3.32540521  3.32540521  3.4757468   3.74300393
  4.62069152  4.62069152  4.85086557  4.85086557  5.24358124  5.31580704
  5.31580704  5.44518822  5.44518822  5.59693476  5.94415629  5.94415629
  6.22591605  6.22591605  6.32442897  7.23373262  7.23373262  7.59550436
  7.64774649  7.64774649  8.00013665  8.05338436  8.05338436  8.30896788
  8.30896788  9.62129042  9.62129042  9.69106551 10.27619399 10.94586029
 10.94586029 12.13980276 12.13980276 12.25165464 12.25165464 13.11450298
 13.11450298 13.70694258 13.910684   14.07864039 14.07864039 15.75707292
 15.75707292 16.02152478 16.02152478 16.32512892 16.32512892 16.50558002
 16.50558002 17.31243891 17.71525997 17.71525997 19.3958071  34.18323192]
E1 = -49.90282221167306  E_coul = 21.265225869905702
cycle= 7 E= -24.5971944259297  delta_E= -1.82e-08  |g|= 2.01e-05  |ddm|= 0.000492
    CPU time for cycle= 7     53.00 sec, wall time      0.42 sec
  HOMO = -0.649100106567311  LUMO = 0.107143815836523
  mo_energy =
[-1.62087635 -0.76711851 -0.64910011 -0.64910011  0.10714382  0.4351939
  0.5038334   0.61683291  0.61683291  0.70650994  0.70650994  0.9158459
  1.26622766  1.51249335  1.56654371  1.56654371  1.85559571  1.85559571
  2.05788557  2.27812678  2.27812678  2.37294195  2.37294195  2.6041918
  2.76720211  2.76720211  3.32540784  3.32540784  3.47575256  3.743007
  4.62069304  4.62069304  4.8508681   4.8508681   5.24358435  5.31581138
  5.31581138  5.44519158  5.44519158  5.59693957  5.94415862  5.94415862
  6.22592233  6.22592233  6.32443424  7.23373828  7.23373828  7.59551284
  7.64775476  7.64775476  8.0001423   8.05339187  8.05339187  8.30897439
  8.30897439  9.62129672  9.62129672  9.69107156 10.27620089 10.94586839
 10.94586839 12.13980703 12.13980703 12.25165855 12.25165855 13.11450704
 13.11450704 13.70694978 13.91068854 14.07864469 14.07864469 15.75708106
 15.75708106 16.02153166 16.02153166 16.3251385  16.3251385  16.50558643
 16.50558643 17.3124451  17.71526792 17.71526792 19.39581426 34.18324449]
E1 = -49.90280363432048  E_coul = 21.26520729242328
cycle= 8 E= -24.5971944260595  delta_E= -1.3e-10  |g|= 1.73e-06  |ddm|= 5.01e-05
    CPU time for cycle= 8     59.34 sec, wall time      0.46 sec
  HOMO = -0.649099934253307  LUMO = 0.107143933286858
  mo_energy =
[-1.62087619 -0.76711846 -0.64909993 -0.64909993  0.10714393  0.43519422
  0.50383342  0.61683308  0.61683308  0.70650998  0.70650998  0.91584609
  1.26622794  1.51249349  1.56654392  1.56654392  1.85559593  1.85559593
  2.05788574  2.27812698  2.27812698  2.37294211  2.37294211  2.60419198
  2.76720232  2.76720232  3.32540809  3.32540809  3.47575281  3.74300729
  4.62069333  4.62069333  4.85086841  4.85086841  5.24358463  5.31581175
  5.31581175  5.44519193  5.44519193  5.59693993  5.94415892  5.94415892
  6.22592258  6.22592258  6.32443446  7.23373852  7.23373852  7.59551293
  7.64775488  7.64775488  8.0001426   8.05339208  8.05339208  8.30897461
  8.30897461  9.62129697  9.62129697  9.69107182 10.27620121 10.94586878
 10.94586878 12.13980745 12.13980745 12.25165898 12.25165898 13.11450745
 13.11450745 13.70695014 13.91068893 14.07864506 14.07864506 15.75708154
 15.75708154 16.02153213 16.02153213 16.32513897 16.32513897 16.50558692
 16.50558692 17.31244549 17.71526834 17.71526834 19.39581465 34.18324489]
E1 = -49.90280252485255  E_coul = 21.265206182954422
Extra cycle  E= -24.5971944260604  delta_E= -9.27e-13  |g|= 5.36e-07  |ddm|= 3.09e-06
    CPU time for scf_cycle    541.23 sec, wall time      4.32 sec
    CPU time for SCF    541.72 sec, wall time      4.33 sec
converged SCF energy = -24.5971944260604
