#INFO: **** input file is /home/nkousuke/lustre/toBeSync/turboRVB/05turbo-genius-development/turbogenius_paper/04data/sanity_checks/02pyscf_prep_LDA_via_trexio/00open_boundary/results/N2/pyscf-LDA-workflow/run.py ****

from pyscf_wrapper import Pyscf_wrapper

# input variables
pyscf_chkfile="pyscf.chk"
structure_file="N2.xyz"

# input variables
omp_num_threads=128
charge=0
spin=0
basis="ccecp-ccpvqz"
ecp="ccecp"
scf_method="DFT"
dft_xc="LDA_X,LDA_C_PZ"
solver_newton=False
MP2_flag=False
CCSD_flag=False
pyscf_output="out.pyscf"
twist_average=False
exp_to_discard=0.1
kpt=[0.0, 0.0, 0.0]
kpt_grid=[1, 1, 1]
smearing_method="fermi"
smearing_sigma=0.0

pyscf_calc=Pyscf_wrapper(
                        structure_file=structure_file,
                        chkfile=pyscf_chkfile,
                        )

pyscf_calc.run_pyscf(
                  omp_num_threads=omp_num_threads,
                  charge=charge,
                  spin=spin,
                  basis=basis,
                  ecp=ecp,
                  scf_method=scf_method,
                  dft_xc=dft_xc,
                  solver_newton=solver_newton,
                  MP2_flag=MP2_flag,
                  CCSD_flag=CCSD_flag,
                  pyscf_output=pyscf_output,
                  twist_average=twist_average,
                  exp_to_discard=exp_to_discard,
                  kpt=kpt,
                  kpt_grid=kpt_grid,
                  smearing_method=smearing_method,
                  smearing_sigma=smearing_sigma
                  )
                #INFO: ******************** input file end ********************


System: uname_result(system='Linux', node='spcc-205', release='5.4.0-66-generic', version='#74-Ubuntu SMP Wed Jan 27 22:54:38 UTC 2021', machine='x86_64', processor='x86_64')  Threads 128
Python 3.7.3 (default, Mar 27 2019, 22:11:17) 
[GCC 7.3.0]
numpy 1.20.1  scipy 1.7.3
Date: Thu Dec 22 06:23:14 2022
PySCF version 2.0.1
PySCF path  /home/nkousuke/application/anaconda3/lib/python3.7/site-packages/pyscf

[CONFIG] conf_file /home/nkousuke/.pyscf_conf.py
[INPUT] verbose = 5
[INPUT] max_memory = 507430.27734375 
[INPUT] num. atoms = 2
[INPUT] num. electrons = 10
[INPUT] charge = 0
[INPUT] spin (= nelec alpha-beta = 2S) = 0
[INPUT] symmetry False subgroup None
[INPUT] Mole.unit = A
[INPUT]  1 N      0.000000000000   0.000000000000   0.548800000000 AA    0.000000000000   0.000000000000   1.037081697161 Bohr
[INPUT]  2 N      0.000000000000   0.000000000000  -0.548800000000 AA    0.000000000000   0.000000000000  -1.037081697161 Bohr
[INPUT] ---------------- BASIS SET ---------------- 
[INPUT] l, kappa, [nprim/nctr], expnt,             c_1 c_2 ...
[INPUT] N
[INPUT] 0    0    [9    /1   ]  42.693822         -0.0009357
                                19.963207         0.0063295
                                9.3345971         0.0105038
                                4.9278187         -0.1653735
                                2.04092           -0.0005352
                                0.96708           0.2452063
                                0.476131          0.4582128
                                0.211443          0.3641224
                                0.098869          0.0620406
[INPUT] 0    0    [1    /1   ]  1.625001             1
[INPUT] 0    0    [1    /1   ]  0.310826             1
[INPUT] 0    0    [1    /1   ]  0.135764             1
[INPUT] 1    0    [9    /1   ]  18.925871         0.0073505
                                9.225603          0.0292844
                                4.581431          0.0652168
                                2.300164          0.1405153
                                1.154825          0.2328188
                                0.582039          0.2989556
                                0.290535          0.2802507
                                0.145867          0.1527995
                                0.073234          0.0355475
[INPUT] 1    0    [1    /1   ]  1.02075              1
[INPUT] 1    0    [1    /1   ]  0.413103             1
[INPUT] 1    0    [1    /1   ]  0.140736             1
[INPUT] 2    0    [1    /1   ]  3.028459             1
[INPUT] 2    0    [1    /1   ]  1.009895             1
[INPUT] 2    0    [1    /1   ]  0.346233             1
[INPUT] 3    0    [1    /1   ]  2.024747             1
[INPUT] 3    0    [1    /1   ]  0.691129             1
[INPUT] 4    0    [1    /1   ]  1.357512             1

nuclear repulsion = 12.0530523624271
number of shells = 28
number of NR pGTOs = 172
number of NR cGTOs = 108
basis = ccecp-ccpvqz
ecp = ccecp
CPU time:         5.96


******** <class 'pyscf.df.df_jk.density_fit.<locals>.DFHF'> ********
method = DFHF-RKS-RHF
initial guess = minao
damping factor = 0
level_shift factor = 0
DIIS = <class 'pyscf.scf.diis.CDIIS'>
diis_start_cycle = 1
diis_space = 8
SCF conv_tol = 1e-09
SCF conv_tol_grad = None
SCF max_cycles = 200
direct_scf = True
direct_scf_tol = 1e-13
chkfile to save SCF result = pyscf.chk
max_memory 507430 MB (current use 106 MB)
XC library pyscf.dft.libxc version 5.1.7
    S. Lehtola, C. Steigemann, M. J. Oliveira, and M. A. Marques, SoftwareX 7, 1 (2018)
XC functionals = LDA_X,LDA_C_PZ
    P. A. M. Dirac, Math. Proc. Cambridge Philos. Soc. 26, 376 (1930)
    F. Bloch, Z. Phys. 57, 545 (1929)
    J. P. Perdew and A. Zunger, Phys. Rev. B 23, 5048 (1981)
radial grids: 
    Treutler-Ahlrichs [JCP 102, 346 (1995); DOI:10.1063/1.469408] (M4) radial grids
    
becke partition: Becke, JCP 88, 2547 (1988); DOI:10.1063/1.454033
pruning grids: <function nwchem_prune at 0x14733ea617b8>
grids dens level: 3
symmetrized grids: False
atomic radii adjust function: <function treutler_atomic_radii_adjust at 0x14733ea616a8>
small_rho_cutoff = 1e-07
Set gradient conv threshold to 3.16228e-05
atom N rad-grids = 75, ang-grids = [ 50  50  50  50  50  50  50  50  50  50  50  50  50  50  50  50  50  50
  50  50  50  50  50  86  86  86  86  86  86  86  86  86 266 266 266 266
 266 266 266 302 302 302 302 302 302 302 302 302 302 302 302 302 302 302
 302 302 302 302 266 266 266 266 266 266 266 266 266 266 266 266 266 266
 266 266 266]
tot grids = 28092
Drop grids 2366
    CPU time for setting up grids     23.89 sec, wall time      0.20 sec
nelec by numeric integration = 10.00000018849221
    CPU time for vxc     36.81 sec, wall time      0.29 sec
Even tempered Gaussians are generated as DF auxbasis for  N
  ETB auxbasis for N  [[0, [25.310464, 1]], [0, [12.655232, 1]], [0, [6.327616, 1]], [0, [3.163808, 1]], [0, [1.581904, 1]], [0, [0.790952, 1]], [0, [0.395476, 1]], [0, [0.197738, 1]], [1, [21.783437498876435, 1]], [1, [10.891718749438217, 1]], [1, [5.445859374719109, 1]], [1, [2.7229296873595543, 1]], [1, [1.3614648436797772, 1]], [1, [0.6807324218398886, 1]], [1, [0.3403662109199443, 1]], [1, [0.17018310545997214, 1]], [2, [37.495808, 1]], [2, [18.747904, 1]], [2, [9.373952, 1]], [2, [4.686976, 1]], [2, [2.343488, 1]], [2, [1.171744, 1]], [2, [0.585872, 1]], [2, [0.292936, 1]], [2, [0.146468, 1]], [3, [10.191088692093302, 1]], [3, [5.095544346046651, 1]], [3, [2.5477721730233256, 1]], [3, [1.2738860865116628, 1]], [3, [0.6369430432558314, 1]], [3, [0.3184715216279157, 1]], [4, [5.539728, 1]], [4, [2.769864, 1]], [4, [1.384932, 1]], [4, [0.692466, 1]]]
num shells = 70, num cGTOs = 310
    CPU time for df-vj     41.48 sec, wall time      0.32 sec
E1 = -54.332296684030894  Ecoul = 27.489364447401247  Exc = -4.720879714220787
init E= -19.5107595884233
cond(S) = 23831.45358942404
    CPU time for initialize scf    223.89 sec, wall time      1.88 sec
  HOMO = -0.412753651718266  LUMO = -0.0873714529984653
  mo_energy =
[-1.0869773  -0.51132584 -0.4497539  -0.4497539  -0.41275365 -0.08737145
 -0.08737145  0.18550846  0.19458475  0.2443583   0.2443583   0.27450841
  0.36658627  0.36658627  0.44289544  0.56719469  0.56719473  0.62906125
  0.81639662  0.81639662  0.91934554  0.91934557  0.99098948  1.14440496
  1.14661091  1.14661091  1.57185063  1.57185063  1.64643768  1.88065485
  1.8891097   1.8891097   1.91894605  2.11823309  2.11823309  2.19864194
  2.1986423   2.34778375  2.34778375  2.49684208  2.60828336  2.60828336
  2.70087526  2.70087604  2.71656106  2.71656106  2.79010686  2.81396064
  2.81396238  3.24790027  3.24790027  3.25733915  3.32167061  3.32167061
  4.53393251  4.53393251  4.62526225  4.63554047  5.83303555  5.83303555
  6.03028613  6.10664335  6.10666159  6.17791723  6.17791723  6.27790432
  6.2779045   6.32534497  6.32534497  6.52440179  6.52442216  6.87726635
  6.87726635  7.05623879  7.34529414  7.34529414  7.37833621  7.37833621
  7.46082802  7.98408084  8.04945702  8.04947329  8.11811505  8.11811505
  8.20515134  8.31493733  8.31493733  8.31961167  8.31961651  8.5881549
  8.5881549   8.82165208  8.82165668  9.13072975  9.13075668  9.61280174
  9.81422565  9.81422565  9.89631348  9.89632471 10.05220001 10.05220001
 10.59202109 11.54661553 12.44464641 12.44464641 17.4834143  18.71511504]
nelec by numeric integration = 10.000000179486795
    CPU time for vxc     35.40 sec, wall time      0.28 sec
    CPU time for df-vj      2.05 sec, wall time      0.01 sec
E1 = -55.051023499632464  Ecoul = 28.05339491524688  Exc = -4.83213914614301
cycle= 1 E= -19.7767153681015  delta_E= -0.266  |g|= 0.183  |ddm|=  3.2
    CPU time for cycle= 1     47.78 sec, wall time      0.43 sec
  HOMO = -0.35159448782067  LUMO = -0.0517443064493087
  mo_energy =
[-1.00328048 -0.46773986 -0.40873588 -0.40873588 -0.35159449 -0.05174431
 -0.05174431  0.19499947  0.20797442  0.25419964  0.25419964  0.28878468
  0.38008908  0.38008908  0.4572053   0.57275863  0.57275863  0.67606121
  0.83517022  0.83517022  0.92545278  0.92545283  1.01423663  1.16466633
  1.16466633  1.18765157  1.60159004  1.60159004  1.68365542  1.91051367
  1.91248637  1.91248637  1.95375243  2.12742262  2.12742262  2.22541784
  2.22541788  2.40222686  2.40222686  2.54275302  2.61678583  2.61678583
  2.72669254  2.72669345  2.75001675  2.75001675  2.83891811  2.83891996
  2.84234425  3.27801032  3.27801032  3.28737814  3.34374828  3.34374844
  4.58127147  4.58127147  4.68985755  4.69907383  5.86978719  5.86978719
  6.09672505  6.12642476  6.12644187  6.24395297  6.24395297  6.33504232
  6.33504264  6.38470214  6.38470214  6.54316968  6.54318879  6.95753413
  6.95753413  7.14764762  7.37790931  7.37790931  7.42842886  7.42842886
  7.51970183  8.05293804  8.09202105  8.09203689  8.15875026  8.15875026
  8.26254385  8.35537091  8.35537091  8.37370015  8.37370521  8.64717173
  8.64717173  8.88982126  8.88982609  9.19230236  9.19232807  9.67521622
  9.90240245  9.90240245  9.95263003  9.95264111 10.13039675 10.13039675
 10.69509723 11.65263982 12.52275027 12.52275027 17.57129606 18.82452421]
nelec by numeric integration = 10.000000172694941
    CPU time for vxc     29.57 sec, wall time      0.23 sec
    CPU time for df-vj      1.54 sec, wall time      0.01 sec
E1 = -54.56071157398466  Ecoul = 27.45159662009903  Exc = -4.72307268901473
cycle= 2 E= -19.7791352804732  delta_E= -0.00242  |g|= 0.123  |ddm|= 0.429
    CPU time for cycle= 2     50.15 sec, wall time      0.39 sec
  HOMO = -0.386511726171029  LUMO = -0.0821094009279904
  mo_energy =
[-1.05198153 -0.49830583 -0.44303313 -0.44303313 -0.38651173 -0.0821094
 -0.0821094   0.1828299   0.19851334  0.24175613  0.24175613  0.27839813
  0.36672196  0.36672196  0.44534051  0.55803781  0.55803782  0.64604073
  0.81878674  0.81878674  0.9129969   0.91299694  0.99814572  1.15163901
  1.15163901  1.16339376  1.574752    1.574752    1.65953745  1.88604005
  1.88876388  1.88876388  1.92852118  2.10875933  2.10875933  2.20074061
  2.20074069  2.36675168  2.36675168  2.51719119  2.59944148  2.59944148
  2.70011797  2.70011882  2.72843453  2.72843453  2.8106641   2.81263588
  2.81263763  3.25715211  3.25715211  3.26602915  3.32217582  3.32217594
  4.54993614  4.54993614  4.65344282  4.65931795  5.83928019  5.83928019
  6.05432533  6.09943614  6.09945329  6.19789052  6.19789052  6.29775485
  6.29775516  6.34248898  6.34248898  6.51654126  6.51656042  6.91162345
  6.91162345  7.09811392  7.34851009  7.34851009  7.39527057  7.39527057
  7.47801147  8.01247947  8.06091589  8.06093155  8.11992573  8.11992573
  8.22477247  8.31692059  8.31692059  8.33508726  8.33509213  8.60950945
  8.60950945  8.84354495  8.84354965  9.1444767   9.14450247  9.63290379
  9.85114634  9.85114634  9.90964795  9.90965894 10.08215426 10.08215426
 10.6402935  11.59459146 12.47550822 12.47550822 17.51593385 18.7603711 ]
nelec by numeric integration = 10.000000177868904
    CPU time for vxc     37.39 sec, wall time      0.29 sec
    CPU time for df-vj      4.06 sec, wall time      0.03 sec
E1 = -54.856212900540314  Ecoul = 27.80660852885269  Exc = -4.7856418832017855
cycle= 3 E= -19.7821938924623  delta_E= -0.00306  |g|= 0.0267  |ddm|= 0.243
    CPU time for cycle= 3     94.25 sec, wall time      0.74 sec
  HOMO = -0.380415973652484  LUMO = -0.0756081484490801
  mo_energy =
[-1.04252787 -0.49242774 -0.43552898 -0.43552898 -0.38041597 -0.07560815
 -0.07560815  0.18570031  0.2001262   0.24470101  0.24470101  0.28025705
  0.36955687  0.36955687  0.44787812  0.56200024  0.56200024  0.65172981
  0.82226974  0.82226974  0.91611943  0.91611947  1.00136335  1.15408318
  1.15408318  1.16736361  1.58065724  1.58065724  1.66386375  1.89111808
  1.89407372  1.89407372  1.93373348  2.11364743  2.11364743  2.20637404
  2.20637409  2.37375752  2.37375752  2.52140575  2.60385938  2.60385938
  2.70602201  2.70602292  2.73238827  2.73238827  2.81649076  2.818499
  2.81850082  3.26118012  3.26118012  3.27022308  3.32696903  3.32696917
  4.55595785  4.55595785  4.65987021  4.66693053  5.84591999  5.84591999
  6.06215683  6.10597124  6.10598847  6.20711681  6.20711681  6.30526119
  6.30526151  6.35099997  6.35099997  6.5229804   6.52299965  6.92030464
  6.92030464  7.10685534  7.35496609  7.35496609  7.40149557  7.40149557
  7.48588097  8.01978634  8.06700038  8.06701618  8.12845121  8.12845121
  8.2320967   8.32532643  8.32532643  8.34277285  8.34277789  8.61647221
  8.61647221  8.85282645  8.85283123  9.15435877  9.15438461  9.64106296
  9.8605578   9.8605578   9.91848993  9.91850101 10.09119639 10.09119639
 10.64970929 11.60462379 12.48432841 12.48432841 17.5265152  18.77218787]
nelec by numeric integration = 10.000000176804056
    CPU time for vxc     31.22 sec, wall time      0.25 sec
    CPU time for df-vj      2.00 sec, wall time      0.01 sec
E1 = -54.8029235884572  Ecoul = 27.74208268942755  Exc = -4.7745705701091286
cycle= 4 E= -19.7823591067117  delta_E= -0.000165  |g|= 0.00092  |ddm|= 0.0434
    CPU time for cycle= 4     46.58 sec, wall time      0.36 sec
  HOMO = -0.380141446951846  LUMO = -0.0753986191617344
  mo_energy =
[-1.04238564 -0.49215138 -0.43535645 -0.43535645 -0.38014145 -0.07539862
 -0.07539862  0.18578163  0.20020702  0.2447601   0.2447601   0.28032943
  0.36964135  0.36964135  0.44797185  0.56206588  0.56206588  0.6518911
  0.82239148  0.82239148  0.91620484  0.91620489  1.00145185  1.1541922
  1.1541922   1.1675336   1.5807986   1.5807986   1.66408556  1.89127967
  1.89421444  1.89421444  1.9338517   2.11373412  2.11373412  2.20647378
  2.20647381  2.37393178  2.37393178  2.52159885  2.60396848  2.60396848
  2.70620992  2.70621086  2.73258497  2.73258497  2.81671468  2.81868565
  2.8186875   3.26136123  3.26136123  3.27039785  3.32710556  3.32710572
  4.55616152  4.55616152  4.66009191  4.6671351   5.84607535  5.84607535
  6.06242744  6.10612     6.10613725  6.20739618  6.20739618  6.30540797
  6.3054083   6.35126417  6.35126417  6.52313872  6.52315799  6.92044767
  6.92044767  7.10709058  7.35514491  7.35514491  7.40179564  7.40179564
  7.48620324  8.02008486  8.06728649  8.06730234  8.12868735  8.12868735
  8.23232665  8.32556697  8.32556697  8.34304244  8.34304754  8.61681199
  8.61681199  8.85303017  8.85303498  9.15465193  9.15467777  9.64139327
  9.86079677  9.86079677  9.9187638   9.91877489 10.09147211 10.09147211
 10.64998293 11.60492965 12.48461846 12.48461846 17.52685758 18.77251262]
nelec by numeric integration = 10.000000176773279
    CPU time for vxc     27.11 sec, wall time      0.21 sec
    CPU time for df-vj      1.97 sec, wall time      0.01 sec
E1 = -54.8014072947405  Ecoul = 27.740179875438656  Exc = -4.7741842490560495
cycle= 5 E= -19.7823593059308  delta_E= -1.99e-07  |g|= 7.6e-05  |ddm|= 0.00181
    CPU time for cycle= 5     46.07 sec, wall time      0.36 sec
  HOMO = -0.380161474553855  LUMO = -0.0754147883011971
  mo_energy =
[-1.04239939 -0.49217058 -0.43537128 -0.43537128 -0.38016147 -0.07541479
 -0.07541479  0.18577072  0.20019727  0.24475041  0.24475041  0.28031989
  0.36963063  0.36963063  0.4479609   0.56205764  0.56205765  0.65187706
  0.82238194  0.82238194  0.91619632  0.91619637  1.00144286  1.15418287
  1.15418287  1.16751834  1.58078503  1.58078503  1.66406857  1.89126583
  1.89420122  1.89420122  1.93384164  2.11372586  2.11372586  2.20646463
  2.20646466  2.37391712  2.37391712  2.52158436  2.60395992  2.60395992
  2.70619678  2.70619773  2.7325725   2.7325725   2.81669757  2.81867214
  2.81867401  3.26135005  3.26135005  3.27038624  3.3270961   3.32709627
  4.55614714  4.55614714  4.66007466  4.66711916  5.84606428  5.84606428
  6.06240407  6.10610916  6.10612642  6.20737261  6.20737261  6.30539642
  6.30539675  6.35124228  6.35124228  6.52312762  6.52314691  6.92043502
  6.92043502  7.10707043  7.35513302  7.35513302  7.40177443  7.40177443
  7.48617685  8.02006269  8.06726702  8.0672829   8.1286694   8.1286694
  8.23230971  8.32554882  8.32554882  8.34302275  8.34302789  8.61678619
  8.61678619  8.85301359  8.85301842  9.15462763  9.15465347  9.64136569
  9.86077708  9.86077708  9.91874228  9.91875338 10.0914498  10.0914498
 10.64995956 11.60490227 12.48459477 12.48459477 17.5268271  18.77248285]
nelec by numeric integration = 10.000000176775727
    CPU time for vxc     40.18 sec, wall time      0.32 sec
    CPU time for df-vj      8.32 sec, wall time      0.07 sec
E1 = -54.801517144596716  Ecoul = 27.740316505909778  Exc = -4.77421103078351
cycle= 6 E= -19.7823593070433  delta_E= -1.11e-09  |g|= 9.08e-07  |ddm|= 0.000139
    CPU time for cycle= 6    114.86 sec, wall time      0.92 sec
  HOMO = -0.380162334030497  LUMO = -0.0754155358086532
  mo_energy =
[-1.04240012 -0.49217143 -0.43537199 -0.43537199 -0.38016233 -0.07541554
 -0.07541554  0.18577003  0.20019653  0.24474975  0.24474975  0.28031916
  0.36962993  0.36962993  0.44796019  0.56205703  0.56205704  0.65187632
  0.82238125  0.82238125  0.91619568  0.91619573  1.0014422   1.15418218
  1.15418218  1.16751757  1.58078439  1.58078439  1.66406779  1.89126514
  1.89420055  1.89420055  1.93384096  2.11372526  2.11372526  2.20646397
  2.20646399  2.37391634  2.37391634  2.52158356  2.60395929  2.60395929
  2.70619603  2.70619698  2.7325717   2.7325717   2.81669675  2.81867138
  2.81867324  3.2613493   3.2613493   3.27038549  3.32709542  3.32709559
  4.55614634  4.55614634  4.66007385  4.66711839  5.84606355  5.84606355
  6.06240323  6.10610846  6.10612572  6.20737191  6.20737191  6.30539566
  6.30539599  6.35124155  6.35124155  6.52312692  6.5231462   6.92043427
  6.92043427  7.10706964  7.35513227  7.35513227  7.40177357  7.40177357
  7.48617597  8.0200618   8.06726617  8.06728204  8.1286686   8.1286686
  8.23230889  8.32554802  8.32554802  8.34302191  8.34302704  8.61678528
  8.61678528  8.85301282  8.85301765  9.15462687  9.15465271  9.64136486
  9.86077629  9.86077629  9.9187415   9.91875259 10.09144896 10.09144896
 10.64995872 11.60490141 12.48459393 12.48459393 17.52682642 18.77248215]
nelec by numeric integration = 10.00000017677575
    CPU time for vxc     41.85 sec, wall time      0.33 sec
    CPU time for df-vj      7.44 sec, wall time      0.06 sec
E1 = -54.801518278300065  Ecoul = 27.74031794826712  Exc = -4.7742113394377474
cycle= 7 E= -19.7823593070436  delta_E= -2.49e-13  |g|= 3.31e-08  |ddm|= 1.49e-06
    CPU time for cycle= 7     73.43 sec, wall time      0.58 sec
  HOMO = -0.380162351907033  LUMO = -0.0754155531666763
  mo_energy =
[-1.04240014 -0.49217144 -0.43537201 -0.43537201 -0.38016235 -0.07541555
 -0.07541555  0.18577001  0.20019652  0.24474973  0.24474973  0.28031915
  0.36962992  0.36962992  0.44796018  0.56205702  0.56205703  0.6518763
  0.82238124  0.82238124  0.91619567  0.91619572  1.00144218  1.15418217
  1.15418217  1.16751755  1.58078437  1.58078437  1.66406777  1.89126513
  1.89420054  1.89420054  1.93384095  2.11372525  2.11372525  2.20646395
  2.20646398  2.37391632  2.37391632  2.52158354  2.60395928  2.60395928
  2.70619601  2.70619697  2.73257169  2.73257169  2.81669673  2.81867136
  2.81867323  3.26134929  3.26134929  3.27038548  3.32709541  3.32709558
  4.55614633  4.55614633  4.66007383  4.66711838  5.84606353  5.84606353
  6.0624032   6.10610844  6.10612571  6.20737189  6.20737189  6.30539565
  6.30539597  6.35124153  6.35124153  6.5231269   6.52314619  6.92043426
  6.92043426  7.10706962  7.35513226  7.35513226  7.40177355  7.40177355
  7.48617595  8.02006178  8.06726615  8.06728203  8.12866858  8.12866858
  8.23230887  8.325548    8.325548    8.34302189  8.34302702  8.61678526
  8.61678526  8.8530128   8.85301763  9.15462685  9.15465269  9.64136484
  9.86077626  9.86077626  9.91874148  9.91875257 10.09144894 10.09144894
 10.6499587  11.60490138 12.48459391 12.48459391 17.52682639 18.77248212]
nelec by numeric integration = 10.000000176775751
    CPU time for vxc     31.57 sec, wall time      0.25 sec
    CPU time for df-vj      8.08 sec, wall time      0.06 sec
E1 = -54.80151837396441  Ecoul = 27.740318065041237  Exc = -4.774211360547436
Extra cycle  E= -19.7823593070435  delta_E= 7.82e-14  |g|= 2.36e-08  |ddm|= 9.93e-08
    CPU time for scf_cycle    761.74 sec, wall time      6.17 sec
    CPU time for SCF    761.75 sec, wall time      6.17 sec
converged SCF energy = -19.7823593070435
