#INFO: **** input file is /home/nkousuke/lustre/toBeSync/turboRVB/05turbo-genius-development/turbogenius_paper/04data/sanity_checks/03pyscf_HF_turbo_VMC_via_trexio/00open_boundary/results/H/pyscf-HF-workflow/run.py ****

from pyscf_wrapper import Pyscf_wrapper

# input variables
pyscf_chkfile="pyscf.chk"
structure_file="H.xyz"

# input variables
omp_num_threads=128
charge=0
spin=1
basis="ccecp-ccpvqz"
ecp="ccecp"
scf_method="HF"
dft_xc="NA"
solver_newton=False
MP2_flag=False
CCSD_flag=False
pyscf_output="out.pyscf"
twist_average=False
exp_to_discard=0.0
kpt=[0.0, 0.0, 0.0]
kpt_grid=[1, 1, 1]
smearing_method="fermi"
smearing_sigma=0.0

pyscf_calc=Pyscf_wrapper(
                        structure_file=structure_file,
                        chkfile=pyscf_chkfile,
                        )

pyscf_calc.run_pyscf(
                  omp_num_threads=omp_num_threads,
                  charge=charge,
                  spin=spin,
                  basis=basis,
                  ecp=ecp,
                  scf_method=scf_method,
                  dft_xc=dft_xc,
                  solver_newton=solver_newton,
                  MP2_flag=MP2_flag,
                  CCSD_flag=CCSD_flag,
                  pyscf_output=pyscf_output,
                  twist_average=twist_average,
                  exp_to_discard=exp_to_discard,
                  kpt=kpt,
                  kpt_grid=kpt_grid,
                  smearing_method=smearing_method,
                  smearing_sigma=smearing_sigma
                  )
                #INFO: ******************** input file end ********************


System: uname_result(system='Linux', node='spcc-145', release='5.4.0-66-generic', version='#74-Ubuntu SMP Wed Jan 27 22:54:38 UTC 2021', machine='x86_64', processor='x86_64')  Threads 128
Python 3.7.3 (default, Mar 27 2019, 22:11:17) 
[GCC 7.3.0]
numpy 1.20.1  scipy 1.7.3
Date: Mon Dec 19 18:02:35 2022
PySCF version 2.0.1
PySCF path  /home/nkousuke/application/anaconda3/lib/python3.7/site-packages/pyscf

[CONFIG] conf_file /home/nkousuke/.pyscf_conf.py
[INPUT] verbose = 5
[INPUT] max_memory = 506642.48046875 
[INPUT] num. atoms = 1
[INPUT] num. electrons = 1
[INPUT] charge = 0
[INPUT] spin (= nelec alpha-beta = 2S) = 1
[INPUT] symmetry False subgroup None
[INPUT] Mole.unit = A
[INPUT]  1 H      0.000000000000   0.000000000000   0.000000000000 AA    0.000000000000   0.000000000000   0.000000000000 Bohr
[INPUT] ---------------- BASIS SET ---------------- 
[INPUT] l, kappa, [nprim/nctr], expnt,             c_1 c_2 ...
[INPUT] H
[INPUT] 0    0    [8    /1   ]  23.843185         0.0041149
                                10.212443         0.0104644
                                4.374164          0.0280111
                                1.873529          0.0758862
                                0.802465          0.1821062
                                0.343709          0.3485214
                                0.147217          0.3782313
                                0.063055          0.1164241
[INPUT] 0    0    [1    /1   ]  0.081856             1
[INPUT] 0    0    [1    /1   ]  0.233254             1
[INPUT] 0    0    [1    /1   ]  0.664673             1
[INPUT] 1    0    [1    /1   ]  0.284469             1
[INPUT] 1    0    [1    /1   ]  0.847159             1
[INPUT] 1    0    [1    /1   ]  2.522868             1
[INPUT] 2    0    [1    /1   ]  0.665279             1
[INPUT] 2    0    [1    /1   ]  2.048739             1
[INPUT] 3    0    [1    /1   ]  1.42146              1

nuclear repulsion = 0
number of shells = 10
number of NR pGTOs = 37
number of NR cGTOs = 30
basis = ccecp-ccpvqz
ecp = ccecp
CPU time:         6.93


******** <class 'pyscf.scf.rohf.ROHF'> ********
method = ROHF-RHF
initial guess = minao
damping factor = 0
level_shift factor = 0
DIIS = <class 'pyscf.scf.diis.CDIIS'>
diis_start_cycle = 1
diis_space = 8
SCF conv_tol = 1e-09
SCF conv_tol_grad = None
SCF max_cycles = 200
direct_scf = True
direct_scf_tol = 1e-13
chkfile to save SCF result = pyscf.chk
max_memory 506642 MB (current use 105 MB)
num. doubly occ = 0  num. singly occ = 1
Set gradient conv threshold to 3.16228e-05
E1 = -0.4940274867377467  Ecoul = 0.17103899907029452
init E= -0.322988487667452
cond(S) = 1074.3595340695265
    CPU time for initialize scf     54.05 sec, wall time      0.53 sec
E1 = -0.4896986171464589  Ecoul = -2.1242580465512988e-17
cycle= 1 E= -0.489698617146459  delta_E= -0.167  |g|= 0.0732  |ddm|= 0.968
    CPU time for cycle= 1      3.60 sec, wall time      0.03 sec
E1 = -0.49964338068378916  Ecoul = 3.433109238516405e-17
cycle= 2 E= -0.499643380683789  delta_E= -0.00994  |g|= 0.0181  |ddm|= 0.384
    CPU time for cycle= 2     14.82 sec, wall time      0.12 sec
E1 = -0.4999971929973112  Ecoul = 1.3272706844093142e-17
cycle= 3 E= -0.499997192997311  delta_E= -0.000354  |g|= 0.00151  |ddm|= 0.074
    CPU time for cycle= 3      5.64 sec, wall time      0.04 sec
E1 = -0.4999995097692649  Ecoul = -6.495644126868952e-17
cycle= 4 E= -0.499999509769265  delta_E= -2.32e-06  |g|= 0.000259  |ddm|= 0.0098
    CPU time for cycle= 4      3.57 sec, wall time      0.03 sec
E1 = -0.4999996421905596  Ecoul = -7.486019774390412e-17
cycle= 5 E= -0.49999964219056  delta_E= -1.32e-07  |g|= 5.45e-05  |ddm|= 0.00255
    CPU time for cycle= 5      4.10 sec, wall time      0.03 sec
E1 = -0.4999996485234452  Ecoul = -4.8985510280252355e-17
cycle= 6 E= -0.499999648523445  delta_E= -6.33e-09  |g|= 7.81e-08  |ddm|= 0.000414
    CPU time for cycle= 6     12.30 sec, wall time      0.10 sec
Linear dependence found in DIIS error vectors.
E1 = -0.4999996485234536  Ecoul = -2.4997923823102942e-17
cycle= 7 E= -0.499999648523454  delta_E= -8.33e-15  |g|= 4.51e-08  |ddm|= 2.59e-07
    CPU time for cycle= 7     16.36 sec, wall time      0.13 sec
E1 = -0.4999996485234579  Ecoul = -2.1582209839135725e-17
Extra cycle  E= -0.499999648523458  delta_E= -4.33e-15  |g|= 7.89e-09  |ddm|= 3.88e-07
    CPU time for scf_cycle    128.79 sec, wall time      1.12 sec
    CPU time for SCF    128.79 sec, wall time      1.12 sec
converged SCF energy = -0.499999648523458
