#INFO: **** input file is /home/nkousuke/lustre/toBeSync/turboRVB/05turbo-genius-development/turbogenius_paper/04data/sanity_checks/02pyscf_prep_LDA_via_trexio/00open_boundary/results/Ne2/pyscf-LDA-workflow/run.py ****

from pyscf_wrapper import Pyscf_wrapper

# input variables
pyscf_chkfile="pyscf.chk"
structure_file="Ne2.xyz"

# input variables
omp_num_threads=128
charge=0
spin=0
basis="ccecp-ccpv6z"
ecp="ccecp"
scf_method="DFT"
dft_xc="LDA_X,LDA_C_PZ"
solver_newton=False
MP2_flag=False
CCSD_flag=False
pyscf_output="out.pyscf"
twist_average=False
exp_to_discard=0.1
kpt=[0.0, 0.0, 0.0]
kpt_grid=[1, 1, 1]
smearing_method="fermi"
smearing_sigma=0.0

pyscf_calc=Pyscf_wrapper(
                        structure_file=structure_file,
                        chkfile=pyscf_chkfile,
                        )

pyscf_calc.run_pyscf(
                  omp_num_threads=omp_num_threads,
                  charge=charge,
                  spin=spin,
                  basis=basis,
                  ecp=ecp,
                  scf_method=scf_method,
                  dft_xc=dft_xc,
                  solver_newton=solver_newton,
                  MP2_flag=MP2_flag,
                  CCSD_flag=CCSD_flag,
                  pyscf_output=pyscf_output,
                  twist_average=twist_average,
                  exp_to_discard=exp_to_discard,
                  kpt=kpt,
                  kpt_grid=kpt_grid,
                  smearing_method=smearing_method,
                  smearing_sigma=smearing_sigma
                  )
                #INFO: ******************** input file end ********************


System: uname_result(system='Linux', node='spcc-205', release='5.4.0-66-generic', version='#74-Ubuntu SMP Wed Jan 27 22:54:38 UTC 2021', machine='x86_64', processor='x86_64')  Threads 128
Python 3.7.3 (default, Mar 27 2019, 22:11:17) 
[GCC 7.3.0]
numpy 1.20.1  scipy 1.7.3
Date: Thu Dec 22 05:31:58 2022
PySCF version 2.0.1
PySCF path  /home/nkousuke/application/anaconda3/lib/python3.7/site-packages/pyscf

[CONFIG] conf_file /home/nkousuke/.pyscf_conf.py
[INPUT] verbose = 5
[INPUT] max_memory = 507502.0859375 
[INPUT] num. atoms = 2
[INPUT] num. electrons = 16
[INPUT] charge = 0
[INPUT] spin (= nelec alpha-beta = 2S) = 0
[INPUT] symmetry False subgroup None
[INPUT] Mole.unit = A
[INPUT]  1 Ne     0.000000000000   0.000000000000   1.550000000000 AA    0.000000000000   0.000000000000   2.929075493076 Bohr
[INPUT]  2 Ne     0.000000000000   0.000000000000  -1.550000000000 AA    0.000000000000   0.000000000000  -2.929075493076 Bohr
[INPUT] ---------------- BASIS SET ---------------- 
[INPUT] l, kappa, [nprim/nctr], expnt,             c_1 c_2 ...
[INPUT] Ne
[INPUT] 0    0    [10   /1   ]  89.999848         3.37e-05
                                44.745732         -0.0005586
                                22.246488         0.0185884
                                11.060411         -0.1268973
                                5.498967          -0.0485302
                                2.733953          0.1789178
                                1.359255          0.3770102
                                0.675788          0.3900693
                                0.335985          0.1855301
                                0.167044          0.0249438
[INPUT] 0    0    [1    /1   ]  5.645582             1
[INPUT] 0    0    [1    /1   ]  2.598539             1
[INPUT] 0    0    [1    /1   ]  1.196052             1
[INPUT] 0    0    [1    /1   ]  0.550517             1
[INPUT] 0    0    [1    /1   ]  0.253391             1
[INPUT] 1    0    [10   /1   ]  40.001333         0.0036474
                                20.592442         0.0330182
                                10.600863         0.0681433
                                5.45726           0.1351194
                                2.809364          0.2148419
                                1.446244          0.264952
                                0.744517          0.2584338
                                0.383273          0.1904296
                                0.197307          0.0847494
                                0.101572          0.0154205
[INPUT] 1    0    [1    /1   ]  5.956575             1
[INPUT] 1    0    [1    /1   ]  2.513531             1
[INPUT] 1    0    [1    /1   ]  1.060649             1
[INPUT] 1    0    [1    /1   ]  0.447568             1
[INPUT] 1    0    [1    /1   ]  0.188863             1
[INPUT] 2    0    [1    /1   ]  15.50208             1
[INPUT] 2    0    [1    /1   ]  6.688366             1
[INPUT] 2    0    [1    /1   ]  2.885693             1
[INPUT] 2    0    [1    /1   ]  1.245031             1
[INPUT] 2    0    [1    /1   ]  0.537168             1
[INPUT] 3    0    [1    /1   ]  9.454061             1
[INPUT] 3    0    [1    /1   ]  4.194532             1
[INPUT] 3    0    [1    /1   ]  1.86101              1
[INPUT] 3    0    [1    /1   ]  0.825684             1
[INPUT] 4    0    [1    /1   ]  8.764366             1
[INPUT] 4    0    [1    /1   ]  3.622402             1
[INPUT] 4    0    [1    /1   ]  1.497176             1
[INPUT] 5    0    [1    /1   ]  6.298847             1
[INPUT] 5    0    [1    /1   ]  2.452948             1
[INPUT] 6    0    [1    /1   ]  4.489278             1

nuclear repulsion = 10.9249488706065
number of shells = 54
number of NR pGTOs = 350
number of NR cGTOs = 278
basis = ccecp-ccpv6z
ecp = ccecp
CPU time:         5.73


******** <class 'pyscf.df.df_jk.density_fit.<locals>.DFHF'> ********
method = DFHF-RKS-RHF
initial guess = minao
damping factor = 0
level_shift factor = 0
DIIS = <class 'pyscf.scf.diis.CDIIS'>
diis_start_cycle = 1
diis_space = 8
SCF conv_tol = 1e-09
SCF conv_tol_grad = None
SCF max_cycles = 200
direct_scf = True
direct_scf_tol = 1e-13
chkfile to save SCF result = pyscf.chk
max_memory 507502 MB (current use 107 MB)
XC library pyscf.dft.libxc version 5.1.7
    S. Lehtola, C. Steigemann, M. J. Oliveira, and M. A. Marques, SoftwareX 7, 1 (2018)
XC functionals = LDA_X,LDA_C_PZ
    P. A. M. Dirac, Math. Proc. Cambridge Philos. Soc. 26, 376 (1930)
    F. Bloch, Z. Phys. 57, 545 (1929)
    J. P. Perdew and A. Zunger, Phys. Rev. B 23, 5048 (1981)
radial grids: 
    Treutler-Ahlrichs [JCP 102, 346 (1995); DOI:10.1063/1.469408] (M4) radial grids
    
becke partition: Becke, JCP 88, 2547 (1988); DOI:10.1063/1.454033
pruning grids: <function nwchem_prune at 0x14606c0c57b8>
grids dens level: 3
symmetrized grids: False
atomic radii adjust function: <function treutler_atomic_radii_adjust at 0x14606c0c56a8>
small_rho_cutoff = 1e-07
Set gradient conv threshold to 3.16228e-05
atom Ne rad-grids = 75, ang-grids = [ 50  50  50  50  50  50  50  50  50  50  50  50  50  50  50  50  50  50
  50  50  50  50  50  50  50  50  50  50  50  50  86  86  86  86  86  86
  86  86  86  86  86  86 266 266 266 266 266 266 266 266 302 302 302 302
 302 302 302 302 302 302 302 302 302 302 302 302 302 302 302 302 302 266
 266 266 266]
tot grids = 24132
Drop grids 2774
    CPU time for setting up grids     24.13 sec, wall time      0.20 sec
nelec by numeric integration = 16.000000076292494
    CPU time for vxc     36.30 sec, wall time      0.28 sec
Even tempered Gaussians are generated as DF auxbasis for  Ne
  ETB auxbasis for Ne  [[0, [42.763264, 1]], [0, [21.381632, 1]], [0, [10.690816, 1]], [0, [5.345408, 1]], [0, [2.672704, 1]], [0, [1.336352, 1]], [0, [0.668176, 1]], [0, [0.334088, 1]], [1, [33.34589726275255, 1]], [1, [16.672948631376276, 1]], [1, [8.336474315688138, 1]], [1, [4.168237157844069, 1]], [1, [2.0841185789220344, 1]], [1, [1.0420592894610172, 1]], [1, [0.5210296447305086, 1]], [1, [0.2605148223652543, 1]], [2, [52.004864, 1]], [2, [26.002432, 1]], [2, [13.001216, 1]], [2, [6.500608, 1]], [2, [3.250304, 1]], [2, [1.625152, 1]], [2, [0.812576, 1]], [2, [0.406288, 1]], [2, [0.203144, 1]], [3, [29.898681595094857, 1]], [3, [14.949340797547428, 1]], [3, [7.474670398773714, 1]], [3, [3.737335199386857, 1]], [3, [1.8686675996934285, 1]], [3, [0.9343337998467143, 1]], [3, [0.46716689992335714, 1]], [4, [17.189376, 1]], [4, [8.594688, 1]], [4, [4.297344, 1]], [4, [2.148672, 1]], [4, [1.074336, 1]]]
num shells = 74, num cGTOs = 342
    CPU time for df-vj     32.23 sec, wall time      0.26 sec
E1 = -142.7101461122299  Ecoul = 73.80481971652372  Exc = -11.729526187590013
init E= -69.7099037126897
cond(S) = 25653.097060097116
    CPU time for initialize scf    262.30 sec, wall time      2.33 sec
  HOMO = -0.449400736080755  LUMO = 0.243260137548436
  mo_energy =
[-1.27392392 -1.27323786 -0.45793123 -0.45423543 -0.45423543 -0.45291085
 -0.45291085 -0.44940074  0.24326014  0.31517004  0.31517004  0.32274148
  0.35686992  0.37592947  0.37592947  0.529943    1.14456391  1.16571072
  1.16571072  1.17430184  1.17432755  1.17552651  1.17555217  1.18406506
  1.18406506  1.22700072  1.59554647  1.59554647  1.64051729  1.64051729
  1.66830894  1.68206759  2.19732952  2.34123584  2.80674037  2.8093171
  2.8093171   2.81062368  2.81069436  2.81095783  2.81095783  2.81097948
  2.81097948  2.8111894   2.81126022  2.81477506  2.81477506  2.84058519
  3.73472804  3.75831168  3.75831168  3.76718581  3.76723046  3.7686205
  3.76866535  3.78064726  3.78064726  3.8662777   5.08283476  5.08283476
  5.11244166  5.11244166  5.12944117  5.15707384  6.86940072  6.86940072
  6.86941557  6.86941557  6.86945812  6.86945874  6.86946644  6.86947078
  6.86969698  6.86969698  6.8697576   6.8697576   6.86976834  6.86976834
  6.86984154  6.86984217  6.86987986  6.87018816  7.29002735  7.40498112
  8.04046509  8.04277364  8.04277364  8.04387651  8.04413564  8.04426406
  8.04426406  8.04427983  8.04427983  8.04431756  8.04457668  8.04709983
  8.04709983  8.0660707   9.74024536  9.76009144  9.76009144  9.76709914
  9.76713082  9.76823041  9.76826198  9.77820948  9.77820948  9.85104933
 14.10047455 14.10047455 14.10086161 14.10086161 14.10086183 14.10086183
 14.10091053 14.10091265 14.1010278  14.1010278  14.10102783 14.10102783
 14.1010937  14.10109791 14.10112281 14.10112281 14.10121604 14.10121604
 14.1012162  14.1012162  14.10133023 14.10133023 14.60367534 14.60367534
 14.63363236 14.63363236 14.65128409 14.66405728 19.38435626 19.43318837
 19.4336706  19.43367066 19.43369165 19.43369165 19.43369217 19.43369217
 19.43369634 19.4336966  19.43374488 19.43374488 19.43376413 19.4337644
 19.43377413 19.43377413 19.43378461 19.43378461 19.43397774 19.51429612
 19.67500452 19.67604208 19.67604208 19.67674212 19.67683941 19.67691625
 19.67691625 19.67692581 19.67692581 19.67700726 19.67710458 19.67871598
 19.67871598 19.69845902 24.43360064 24.44831695 24.44831695 24.45332295
 24.45333147 24.45411599 24.4541245  24.46134516 24.46134516 24.51503555
 31.28215555 31.28215556 31.28331675 31.28331675 31.28333372 31.28333372
 31.28333372 31.28333372 31.28717996 31.28717996 31.2872023  31.2872023
 31.2872023  31.2872023  31.29010174 31.29010177 31.29025643 31.29025643
 31.29364933 31.29364933 31.29364933 31.29364933 31.29368872 31.29368872
 31.29371956 31.29371956 40.86196694 40.86196694 40.86201444 40.86201444
 40.86201455 40.86201455 40.86202128 40.86202155 40.86203061 40.86203143
 40.86203143 40.86203144 40.86203144 40.86203408 40.86204976 40.86204976
 40.86207001 40.86207001 40.86207011 40.86207011 40.86208365 40.86208365
 44.97074579 44.97074579 45.01539483 45.01548846 45.01548846 45.02697103
 47.2491939  47.24929314 47.24929314 47.2496237  47.24965461 47.24971195
 47.24971195 47.24971764 47.24971764 47.24977789 47.24980881 47.25086051
 47.25086051 47.25790157 48.55907065 48.75994003 50.34766382 50.34766391
 50.34767009 50.3476701  50.34767213 50.34767213 50.34767222 50.34767222
 50.34768524 50.34768524 50.3476907  50.3476908  50.347711   50.347711
 50.34771499 50.34771499 50.34774419 50.34789676 61.91008852 61.92051213
 61.92051213 61.92414445 61.92414684 61.92470933 61.92471171 61.92992952
 61.92992952 61.96967857]
nelec by numeric integration = 15.999999962970426
    CPU time for vxc     31.55 sec, wall time      0.25 sec
    CPU time for df-vj     16.62 sec, wall time      0.13 sec
E1 = -141.47243716429205  Ecoul = 72.29936408845072  Exc = -11.473636491132961
cycle= 1 E= -69.7217606963678  delta_E= -0.0119  |g|= 0.233  |ddm|= 0.416
    CPU time for cycle= 1     58.59 sec, wall time      0.47 sec
  HOMO = -0.538788358384382  LUMO = 0.214982064579265
  mo_energy =
[-1.36519667 -1.3646213  -0.54550773 -0.54252712 -0.54252712 -0.54154582
 -0.54154582 -0.53878836  0.21498206  0.28981758  0.28981758  0.29584129
  0.32908947  0.35000514  0.35000514  0.50160324  1.11392245  1.13503747
  1.13503747  1.1436278   1.14365294  1.14483638  1.14486147  1.15315002
  1.15315002  1.19385064  1.55171923  1.55171923  1.59724299  1.59724299
  1.62599706  1.63797456  2.14892112  2.29391804  2.77495493  2.77756757
  2.77756757  2.77888942  2.77895632  2.77921634  2.77921634  2.7792379
  2.7792379   2.77945257  2.77951962  2.78299581  2.78299581  2.8082584
  3.67367974  3.69732089  3.69732089  3.70624233  3.7062855   3.70768053
  3.70772389  3.71970738  3.71970738  3.80551753  5.01137081  5.01137081
  5.04117465  5.04117465  5.05823205  5.08598845  6.82432933  6.82432933
  6.82434404  6.82434404  6.82438627  6.82438979  6.82439042  6.82439049
  6.82462098  6.82462098  6.82468467  6.82468467  6.82469551  6.82469551
  6.82476985  6.82477048  6.82479981  6.82508949  7.21223736  7.32752503
  7.97570226  7.97803135  7.97803135  7.97914671  7.97940929  7.97954285
  7.97954285  7.97955861  7.97955861  7.97958846  7.97985104  7.98236345
  7.98236345  8.00125726  9.65046803  9.67041232  9.67041232  9.67747255
  9.6775063   9.67860902  9.67864266  9.68861065  9.68861065  9.76176235
 14.03985494 14.03985494 14.04024096 14.04024096 14.0402412  14.0402412
 14.04029261 14.04029457 14.04041001 14.04041001 14.04041004 14.04041004
 14.04047559 14.04047957 14.04050548 14.04050548 14.04059675 14.04059675
 14.0405969  14.0405969  14.04071231 14.04071231 14.49812111 14.49812111
 14.52816355 14.52816355 14.54582301 14.5586281  19.27366081 19.34484677
 19.34568971 19.34568976 19.34569589 19.34569616 19.34569826 19.34569826
 19.34569895 19.34569895 19.34576276 19.34576302 19.34576522 19.34576522
 19.34576851 19.34576851 19.34577885 19.34577885 19.34591745 19.40436716
 19.57519463 19.5762605  19.5762605  19.57697448 19.57707423 19.57716756
 19.57716756 19.57717711 19.57717711 19.57724024 19.57734002 19.5789405
 19.5789405  19.59820387 24.3165596  24.33131471 24.33131471 24.33635156
 24.33636106 24.33714622 24.33715572 24.34436887 24.34436887 24.39815063
 31.1956652  31.1956652  31.19682262 31.19682262 31.19683525 31.19683525
 31.19683525 31.19683525 31.20066252 31.20066252 31.20067722 31.20067722
 31.20067722 31.20067722 31.20355158 31.20355161 31.20372293 31.20372293
 31.20708488 31.20708488 31.20708489 31.20708489 31.20712561 31.20712561
 31.20715504 31.20715504 40.75295146 40.75295146 40.75300016 40.75300016
 40.75300029 40.75300029 40.75300685 40.75301042 40.75302671 40.75302687
 40.75304781 40.75304781 40.75304782 40.75304782 40.7530515  40.7530515
 40.75305582 40.75305582 40.75305589 40.75305589 40.75306637 40.75306637
 44.8357961  44.8357961  44.88018468 44.88031047 44.88031047 44.89192024
 47.12039777 47.12050508 47.12050508 47.12084647 47.12087803 47.12095153
 47.12095153 47.12095722 47.12095722 47.12100082 47.12103239 47.12207428
 47.12207428 47.12911106 48.42082264 48.62161366 50.22281611 50.2228162
 50.22283524 50.22283524 50.22283552 50.22283552 50.2228428  50.2228429
 50.22285027 50.2228503  50.22285663 50.22285663 50.22286043 50.22286043
 50.22286567 50.22286567 50.22288668 50.22303929 61.77192428 61.78235813
 61.78235813 61.78600212 61.78600484 61.78656735 61.78657007 61.79178122
 61.79178122 61.83154922]
nelec by numeric integration = 16.00000003438703
    CPU time for vxc     37.12 sec, wall time      0.30 sec
    CPU time for df-vj     19.64 sec, wall time      0.16 sec
E1 = -142.93997791821295  Ecoul = 74.08277526949726  Exc = -11.783427751138152
cycle= 2 E= -69.7156815292474  delta_E= 0.00608  |g|= 0.346  |ddm|= 0.41
    CPU time for cycle= 2    120.82 sec, wall time      0.96 sec
  HOMO = -0.495366356688989  LUMO = 0.225628843018835
  mo_energy =
[-1.32176412 -1.3211322  -0.50301648 -0.49964878 -0.49964878 -0.49849624
 -0.49849624 -0.49536636  0.22562884  0.29939624  0.29939624  0.30604281
  0.33975621  0.35992402  0.35992402  0.5126079   1.12506585  1.14618322
  1.14618322  1.15477071  1.15479585  1.15598681  1.15601189  1.16441582
  1.16441582  1.20636459  1.57123766  1.57123766  1.61647767  1.61647767
  1.64456125  1.65754698  2.17021729  2.31462091  2.78647623  2.78907097
  2.78907097  2.79038879  2.79045626  2.79071702  2.79071702  2.79073863
  2.79073863  2.79095315  2.79102076  2.79451337  2.79451337  2.82006556
  3.69945841  3.72309212  3.72309212  3.73200378  3.73204703  3.73344108
  3.73348452  3.7454674   3.7454674   3.831257    5.04552673  5.04552673
  5.07522813  5.07522813  5.09222009  5.11991184  6.84166119  6.84166119
  6.84167595  6.84167595  6.84171945  6.84172008  6.8417207   6.84172364
  6.84195196  6.84195196  6.84201558  6.84201558  6.84202645  6.84202645
  6.84210016  6.84210079  6.84213586  6.84243724  7.24950896  7.36460746
  8.00277332  8.00509215  8.00509215  8.00620562  8.00646717  8.00660127
  8.00660127  8.00661702  8.00661702  8.00664716  8.00690871  8.00942272
  8.00942272  8.02838248  9.69317686  9.71308038  9.71308038  9.72012513
  9.72015816  9.7212591   9.72129202  9.73124033  9.73124033  9.80423571
 14.06436837 14.06436837 14.06475386 14.06475386 14.06475409 14.06475409
 14.06480479 14.06480687 14.06492276 14.06492276 14.06492279 14.06492279
 14.06498727 14.06499141 14.06501746 14.06501746 14.06510793 14.06510793
 14.06510808 14.06510808 14.06522308 14.06522308 14.55274611 14.55274611
 14.58273326 14.58273326 14.60036988 14.61315877 19.33177151 19.38456383
 19.38511866 19.38511871 19.38512436 19.38512462 19.38512718 19.38512718
 19.38512787 19.38512787 19.38519174 19.385192   19.38519355 19.38519355
 19.38519758 19.38519758 19.38520791 19.38520791 19.3853869  19.46176847
 19.62288367 19.62392753 19.62392753 19.62464006 19.62473901 19.62483238
 19.62483238 19.62484193 19.62484193 19.62490553 19.62500451 19.62660471
 19.62660471 19.64634308 24.37773498 24.39247247 24.39247247 24.39750329
 24.39751245 24.398297   24.39830615 24.40551145 24.40551145 24.45923429
 31.23369408 31.23369408 31.23485812 31.23485812 31.23487071 31.23487071
 31.23487071 31.23487071 31.2387203  31.2387203  31.23873493 31.23873493
 31.23873493 31.23873493 31.2416269  31.24162693 31.24179807 31.24179807
 31.24517991 31.24517991 31.24517991 31.24517991 31.24522066 31.24522066
 31.24525007 31.24525007 40.80547424 40.80547424 40.80552281 40.80552281
 40.80552295 40.80552295 40.80552925 40.80553282 40.80554882 40.80554899
 40.80556965 40.80556965 40.80556965 40.80556965 40.80557358 40.80557358
 40.80557807 40.80557807 40.80557814 40.80557814 40.80558868 40.80558868
 44.91262116 44.91262116 44.95715619 44.95727061 44.95727061 44.96879372
 47.18966972 47.18977308 47.18977308 47.1901138  47.19014517 47.19021857
 47.19021857 47.19022426 47.19022426 47.19026806 47.19029944 47.19134128
 47.19134128 47.19838248 48.50108442 48.70190032 50.28779443 50.28779452
 50.28781351 50.28781351 50.28781379 50.28781379 50.2878212  50.2878213
 50.28782837 50.2878284  50.28783513 50.28783513 50.28783894 50.28783894
 50.28784363 50.28784363 50.28786525 50.28801789 61.8500881  61.86051736
 61.86051736 61.86415983 61.86416246 61.86472482 61.86472745 61.86993657
 61.86993657 61.90968912]
nelec by numeric integration = 15.999999995012804
    CPU time for vxc     37.06 sec, wall time      0.29 sec
    CPU time for df-vj     17.33 sec, wall time      0.14 sec
E1 = -142.13523335879495  Ecoul = 73.09277540316374  Exc = -11.611058167247707
cycle= 3 E= -69.7285672522725  delta_E= -0.0129  |g|= 0.0101  |ddm|= 0.243
    CPU time for cycle= 3    135.43 sec, wall time      1.06 sec
  HOMO = -0.493090429078784  LUMO = 0.226429451169782
  mo_energy =
[-1.31937024 -1.31873572 -0.50078166 -0.49739643 -0.49739643 -0.49623591
 -0.49623591 -0.49309043  0.22642945  0.30010511  0.30010511  0.3068258
  0.34055372  0.36064982  0.36064982  0.51341616  1.12608562  1.14720742
  1.14720742  1.15579678  1.15582194  1.1570134   1.1570385   1.1654471
  1.1654471   1.20743863  1.57242123  1.57242123  1.61764858  1.61764858
  1.64572386  1.65873718  2.17156711  2.31594558  2.78756184  2.7901561
  2.7901561   2.79147362  2.79154122  2.791802    2.791802    2.79182362
  2.79182362  2.79203806  2.79210581  2.79559933  2.79559933  2.82116277
  3.70129669  3.72492813  3.72492813  3.73383921  3.73388253  3.73527635
  3.73531985  3.74730068  3.74730068  3.83307681  5.04736177  5.04736177
  5.07705884  5.07705884  5.09405076  5.12173748  6.84317713  6.84317713
  6.84319189  6.84319189  6.84323552  6.84323594  6.84323657  6.84323971
  6.84346796  6.84346796  6.84353168  6.84353168  6.84354254  6.84354254
  6.84361629  6.84361692  6.8436521   6.84395374  7.25150636  7.36659816
  8.00476566  8.0070842   8.0070842   8.00819766  8.00845922  8.0085938
  8.0085938   8.00860955  8.00860955  8.00863917  8.00890073  8.01141448
  8.01141448  8.03037326  9.69551064  9.71541207  9.71541207  9.72245681
  9.72248978  9.72359065  9.72362351  9.73356995  9.73356995  9.80655668
 14.06631999 14.06631999 14.06670569 14.06670569 14.06670592 14.06670592
 14.06675668 14.06675876 14.06687501 14.06687501 14.06687505 14.06687505
 14.06693913 14.06694326 14.06696954 14.06696954 14.06705979 14.06705979
 14.06705995 14.06705995 14.06717496 14.06717496 14.55514622 14.55514622
 14.58513234 14.58513234 14.6027683  14.61555596 19.33422629 19.38706022
 19.38761674 19.38761678 19.38762139 19.38762165 19.38762462 19.38762462
 19.38762531 19.38762531 19.38768885 19.38768912 19.38769161 19.38769161
 19.38769448 19.38769448 19.38770479 19.38770479 19.38788349 19.46422946
 19.62546833 19.62651252 19.62651252 19.62722543 19.62732437 19.62741853
 19.62741853 19.62742808 19.62742808 19.62749088 19.62758985 19.62918955
 19.62918955 19.64892015 24.380346   24.39508318 24.39508318 24.40011467
 24.4001238  24.40090835 24.40091748 24.40812175 24.40812175 24.46184271
 31.23621509 31.23621509 31.23737932 31.23737932 31.23739167 31.23739167
 31.23739167 31.23739167 31.24124161 31.24124161 31.24125579 31.24125579
 31.24125579 31.24125579 31.24414739 31.24414742 31.24431955 31.24431955
 31.24770085 31.24770085 31.24770085 31.24770085 31.24774172 31.24774172
 31.24777107 31.24777107 40.80826476 40.80826476 40.80831335 40.80831335
 40.80831348 40.80831348 40.80831946 40.80832305 40.80834017 40.80834032
 40.80836149 40.80836149 40.8083615  40.8083615  40.80836485 40.80836485
 40.80836876 40.80836876 40.80836883 40.80836883 40.8083791  40.8083791
 44.91515733 44.91515733 44.95969686 44.95981073 44.95981073 44.97133207
 47.19238681 47.19249034 47.19249034 47.19283143 47.1928628  47.19293685
 47.19293685 47.19294254 47.19294254 47.19298568 47.19301706 47.19405852
 47.19405852 47.20109938 48.50358356 48.7044028  50.29060198 50.29060208
 50.2906215  50.2906215  50.2906218  50.2906218  50.29062878 50.29062888
 50.29063713 50.29063716 50.29064248 50.29064248 50.29064626 50.29064626
 50.29065238 50.29065239 50.29067243 50.29082507 61.85270055 61.86312981
 61.86312981 61.86677247 61.86677509 61.86733745 61.86734007 61.87254896
 61.87254896 61.9123013 ]
nelec by numeric integration = 15.999999993541799
    CPU time for vxc     35.81 sec, wall time      0.29 sec
    CPU time for df-vj     16.15 sec, wall time      0.13 sec
E1 = -142.10623043102686  Ecoul = 73.05769929407316  Exc = -11.604999112528084
cycle= 4 E= -69.7285813788753  delta_E= -1.41e-05  |g|= 0.000131  |ddm|= 0.00729
    CPU time for cycle= 4     98.64 sec, wall time      0.83 sec
  HOMO = -0.493108512013999  LUMO = 0.226416982370437
  mo_energy =
[-1.31938809 -1.31875359 -0.50079953 -0.49741445 -0.49741445 -0.49625398
 -0.49625398 -0.49310851  0.22641698  0.30009275  0.30009275  0.30681304
  0.34054068  0.36063743  0.36063743  0.51340428  1.12607622  1.14719815
  1.14719815  1.15578758  1.15581274  1.1570042   1.1570293   1.16543799
  1.16543799  1.20742947  1.57240892  1.57240892  1.61763622  1.61763622
  1.64571114  1.65872481  2.17155467  2.31593353  2.78755363  2.79014791
  2.79014791  2.79146542  2.79153302  2.79179374  2.79179374  2.79181536
  2.79181536  2.79202986  2.79209761  2.79559116  2.79559116  2.82115462
  3.70128449  3.72491591  3.72491591  3.73382697  3.73387029  3.73526411
  3.73530761  3.74728847  3.74728847  3.83306455  5.04734631  5.04734631
  5.07704337  5.07704337  5.09403514  5.12172208  6.84316939  6.84316939
  6.84318415  6.84318415  6.84322769  6.8432282   6.84322883  6.84323187
  6.84346012  6.84346012  6.84352392  6.84352392  6.84353479  6.84353479
  6.84360855  6.84360918  6.84364438  6.84394603  7.25148996  7.36658191
  8.00475401  8.00707255  8.00707255  8.00818599  8.00844756  8.00858209
  8.00858209  8.00859784  8.00859784  8.0086275   8.00888907  8.01140284
  8.01140284  8.03036162  9.69549243  9.71539387  9.71539387  9.72243857
  9.72247154  9.72357241  9.72360527  9.73355176  9.73355176  9.80653853
 14.06631048 14.06631048 14.06669618 14.06669618 14.0666964  14.0666964
 14.06674715 14.06674923 14.06686542 14.06686542 14.06686545 14.06686545
 14.06692962 14.06693375 14.06695998 14.06695998 14.06705028 14.06705028
 14.06705044 14.06705044 14.06716546 14.06716546 14.55512368 14.55512368
 14.58510982 14.58510982 14.60274578 14.61553352 19.33420248 19.38704396
 19.38760051 19.38760055 19.38760522 19.38760548 19.38760843 19.38760843
 19.38760912 19.38760912 19.38767268 19.38767295 19.38767538 19.38767538
 19.38767832 19.38767832 19.38768864 19.38768864 19.38786733 19.46420602
 19.62544849 19.62649268 19.62649268 19.62720557 19.62730451 19.62739864
 19.62739864 19.62740819 19.62740819 19.62747102 19.62756999 19.62916971
 19.62916971 19.64890012 24.38032093 24.39505811 24.39505811 24.40008955
 24.40009869 24.40088324 24.40089236 24.40809668 24.40809668 24.46181767
 31.23619997 31.23619997 31.2373642  31.2373642  31.23737656 31.23737656
 31.23737656 31.23737656 31.24122648 31.24122648 31.24124069 31.24124069
 31.24124069 31.24124069 31.24413231 31.24413234 31.24430442 31.24430442
 31.24768575 31.24768575 31.24768575 31.24768575 31.24772662 31.24772662
 31.24775597 31.24775597 40.80824315 40.80824315 40.80829174 40.80829174
 40.80829188 40.80829188 40.80829786 40.80830145 40.80831853 40.80831868
 40.80833983 40.80833983 40.80833984 40.80833984 40.80834321 40.80834321
 40.80834714 40.80834714 40.80834721 40.80834721 40.8083575  40.8083575
 44.9151268  44.9151268  44.95966638 44.95978015 44.95978015 44.97130158
 47.19235859 47.19246211 47.19246211 47.19280318 47.19283455 47.19290856
 47.19290856 47.19291425 47.19291425 47.19295743 47.19298881 47.19403029
 47.19403029 47.20107116 48.5035521  48.70437129 50.2905753  50.29057539
 50.2905948  50.2905948  50.29059509 50.29059509 50.2906021  50.29060219
 50.29061039 50.29061043 50.2906158  50.2906158  50.29061959 50.29061959
 50.29062565 50.29062565 50.29064576 50.2907984  61.85266925 61.86309848
 61.86309848 61.86674108 61.8667437  61.86730607 61.86730869 61.87251764
 61.87251764 61.91226999]
nelec by numeric integration = 15.999999993556063
    CPU time for vxc     37.31 sec, wall time      0.29 sec
    CPU time for df-vj     13.51 sec, wall time      0.11 sec
E1 = -142.10648390280366  Ecoul = 73.05800700260423  Exc = -11.605053350901038
cycle= 5 E= -69.728581380494  delta_E= -1.62e-09  |g|= 1.39e-05  |ddm|= 8.09e-05
    CPU time for cycle= 5    128.80 sec, wall time      1.03 sec
  HOMO = -0.49311071175162  LUMO = 0.226415193311968
  mo_energy =
[-1.31939026 -1.31875576 -0.50080171 -0.49741663 -0.49741663 -0.49625616
 -0.49625616 -0.49311071  0.22641519  0.30009125  0.30009125  0.30681172
  0.34053933  0.36063596  0.36063596  0.51340269  1.12607505  1.14719698
  1.14719698  1.15578641  1.15581157  1.15700303  1.15702813  1.1654368
  1.1654368   1.20742816  1.5724074   1.5724074   1.61763474  1.61763474
  1.64570981  1.65872322  2.17155315  2.31593196  2.78755255  2.79014683
  2.79014683  2.79146434  2.79153194  2.79179266  2.79179266  2.79181428
  2.79181428  2.79202878  2.79209653  2.79559008  2.79559008  2.8211535
  3.70128292  3.72491435  3.72491435  3.73382541  3.73386873  3.73526255
  3.73530605  3.7472869   3.7472869   3.83306295  5.04734441  5.04734441
  5.07704149  5.07704149  5.0940333   5.12172018  6.84316831  6.84316831
  6.84318307  6.84318307  6.84322661  6.84322713  6.84322775  6.84323079
  6.84345905  6.84345905  6.84352284  6.84352284  6.84353371  6.84353371
  6.84360747  6.8436081   6.8436433   6.84394495  7.25148796  7.36657989
  8.00475249  8.00707103  8.00707103  8.00818447  8.00844604  8.00858057
  8.00858057  8.00859632  8.00859632  8.00862597  8.00888755  8.01140131
  8.01140131  8.03036008  9.69549022  9.71539166  9.71539166  9.72243637
  9.72246934  9.72357021  9.72360307  9.73354956  9.73354956  9.80653633
 14.06630918 14.06630918 14.06669487 14.06669487 14.0666951  14.0666951
 14.06674585 14.06674793 14.06686412 14.06686412 14.06686415 14.06686415
 14.06692832 14.06693245 14.06695868 14.06695868 14.06704898 14.06704898
 14.06704913 14.06704913 14.06716415 14.06716415 14.55512102 14.55512102
 14.58510716 14.58510716 14.60274314 14.61553086 19.33419969 19.38704193
 19.3875985  19.38759854 19.3876032  19.38760347 19.38760641 19.38760641
 19.38760711 19.38760711 19.38767067 19.38767093 19.38767337 19.38767337
 19.3876763  19.3876763  19.38768662 19.38768662 19.3878653  19.46420323
 19.6254461  19.62649029 19.62649029 19.62720318 19.62730212 19.62739625
 19.62739625 19.62740581 19.62740581 19.62746863 19.6275676  19.62916732
 19.62916732 19.64889771 24.380318   24.39505518 24.39505518 24.40008663
 24.40009576 24.40088031 24.40088944 24.40809376 24.40809376 24.46181475
 31.23619805 31.23619805 31.23736228 31.23736228 31.23737465 31.23737465
 31.23737465 31.23737465 31.24122457 31.24122457 31.24123877 31.24123877
 31.24123877 31.24123877 31.24413039 31.24413042 31.2443025  31.2443025
 31.24768384 31.24768384 31.24768384 31.24768384 31.2477247  31.2477247
 31.24775406 31.24775406 40.80824057 40.80824057 40.80828915 40.80828915
 40.80828929 40.80828929 40.80829528 40.80829886 40.80831595 40.8083161
 40.80833725 40.80833725 40.80833726 40.80833726 40.80834063 40.80834063
 40.80834456 40.80834456 40.80834463 40.80834463 40.80835491 40.80835491
 44.91512329 44.91512329 44.95966286 44.95977664 44.95977664 44.97129808
 47.19235533 47.19245885 47.19245885 47.19279992 47.1928313  47.19290531
 47.19290531 47.192911   47.192911   47.19295418 47.19298556 47.19402703
 47.19402703 47.2010679  48.50354847 48.70436768 50.2905722  50.2905723
 50.29059171 50.29059171 50.290592   50.290592   50.290599   50.2905991
 50.2906073  50.29060734 50.2906127  50.2906127  50.29061649 50.29061649
 50.29062256 50.29062256 50.29064266 50.2907953  61.85266566 61.86309489
 61.86309489 61.86673749 61.86674012 61.86730248 61.8673051  61.87251405
 61.87251405 61.91226641]
nelec by numeric integration = 15.999999993558227
    CPU time for vxc     40.32 sec, wall time      0.32 sec
    CPU time for df-vj     11.54 sec, wall time      0.09 sec
E1 = -142.10651236392806  Ecoul = 73.0580414557828  Exc = -11.60505934297382
cycle= 6 E= -69.7285813805126  delta_E= -1.86e-11  |g|= 9.77e-07  |ddm|= 8.82e-06
    CPU time for cycle= 6    116.86 sec, wall time      0.93 sec
  HOMO = -0.493111113740059  LUMO = 0.226414986363128
  mo_energy =
[-1.31939067 -1.31875616 -0.50080211 -0.49741702 -0.49741702 -0.49625655
 -0.49625655 -0.49311111  0.22641499  0.30009107  0.30009107  0.30681153
  0.34053914  0.36063578  0.36063578  0.51340249  1.12607487  1.1471968
  1.1471968   1.15578624  1.15581139  1.15700285  1.15702796  1.16543662
  1.16543662  1.20742797  1.57240717  1.57240717  1.61763451  1.61763451
  1.64570959  1.65872298  2.1715529   2.31593171  2.78755238  2.79014666
  2.79014666  2.79146417  2.79153177  2.79179249  2.79179249  2.79181411
  2.79181411  2.79202861  2.79209635  2.7955899   2.7955899   2.82115332
  3.70128263  3.72491406  3.72491406  3.73382513  3.73386845  3.73526227
  3.73530577  3.74728662  3.74728662  3.83306267  5.04734408  5.04734408
  5.07704115  5.07704115  5.09403297  5.12171984  6.8431681   6.8431681
  6.84318286  6.84318286  6.8432264   6.84322692  6.84322754  6.84323058
  6.84345883  6.84345883  6.84352263  6.84352263  6.8435335   6.8435335
  6.84360726  6.84360789  6.84364309  6.84394474  7.2514876   7.36657954
  8.00475219  8.00707073  8.00707073  8.00818417  8.00844574  8.00858028
  8.00858028  8.00859603  8.00859603  8.00862568  8.00888725  8.01140102
  8.01140102  8.03035979  9.69548982  9.71539126  9.71539126  9.72243597
  9.72246895  9.72356981  9.72360268  9.73354916  9.73354916  9.80653593
 14.06630891 14.06630891 14.0666946  14.0666946  14.06669483 14.06669483
 14.06674558 14.06674766 14.06686385 14.06686385 14.06686388 14.06686388
 14.06692805 14.06693218 14.06695841 14.06695841 14.06704871 14.06704871
 14.06704886 14.06704886 14.06716388 14.06716388 14.55512054 14.55512054
 14.58510668 14.58510668 14.60274266 14.61553038 19.33419919 19.38704154
 19.38759812 19.38759816 19.38760282 19.38760308 19.38760603 19.38760603
 19.38760673 19.38760673 19.38767028 19.38767055 19.38767299 19.38767299
 19.38767592 19.38767592 19.38768623 19.38768623 19.38786492 19.46420273
 19.62544566 19.62648985 19.62648985 19.62720275 19.62730169 19.62739582
 19.62739582 19.62740538 19.62740538 19.6274682  19.62756717 19.62916688
 19.62916688 19.64889727 24.38031747 24.39505466 24.39505466 24.40008611
 24.40009524 24.40087979 24.40088892 24.40809323 24.40809323 24.46181422
 31.23619768 31.23619768 31.23736191 31.23736191 31.23737427 31.23737427
 31.23737427 31.23737427 31.24122419 31.24122419 31.2412384  31.2412384
 31.2412384  31.2412384  31.24413001 31.24413004 31.24430213 31.24430213
 31.24768346 31.24768346 31.24768346 31.24768346 31.24772433 31.24772433
 31.24775368 31.24775368 40.80824009 40.80824009 40.80828868 40.80828868
 40.80828882 40.80828882 40.80829481 40.80829839 40.80831548 40.80831563
 40.80833679 40.80833679 40.8083368  40.8083368  40.80834016 40.80834016
 40.80834409 40.80834409 40.80834415 40.80834415 40.80835444 40.80835444
 44.91512267 44.91512267 44.95966223 44.95977601 44.95977601 44.97129745
 47.19235475 47.19245827 47.19245827 47.19279934 47.19283072 47.19290473
 47.19290473 47.19291043 47.19291043 47.1929536  47.19298498 47.19402645
 47.19402645 47.20106732 48.50354782 48.70436703 50.29057165 50.29057175
 50.29059116 50.29059116 50.29059145 50.29059145 50.29059845 50.29059855
 50.29060676 50.29060679 50.29061215 50.29061215 50.29061594 50.29061594
 50.29062202 50.29062202 50.29064211 50.29079475 61.85266503 61.86309426
 61.86309426 61.86673686 61.86673948 61.86730185 61.86730447 61.87251342
 61.87251342 61.91226577]
nelec by numeric integration = 15.999999993558466
    CPU time for vxc     34.74 sec, wall time      0.28 sec
    CPU time for df-vj     11.79 sec, wall time      0.10 sec
E1 = -142.10651813106287  Ecoul = 73.05804843842986  Exc = -11.605060558485699
Extra cycle  E= -69.7285813805122  delta_E= 3.84e-13  |g|= 1.39e-06  |ddm|= 1.69e-06
    CPU time for scf_cycle   1024.95 sec, wall time      8.43 sec
    CPU time for SCF   1024.96 sec, wall time      8.43 sec
converged SCF energy = -69.7285813805122
