#INFO: **** input file is /home/nkousuke/lustre/toBeSync/turboRVB/05turbo-genius-development/turbogenius_paper/04data/sanity_checks/02pyscf_prep_LDA_via_trexio/00open_boundary/results/LiH/pyscf-LDA-workflow/run.py ****

from pyscf_wrapper import Pyscf_wrapper

# input variables
pyscf_chkfile="pyscf.chk"
structure_file="LiH.xyz"

# input variables
omp_num_threads=128
charge=0
spin=0
basis="ccecp-ccpvqz"
ecp="ccecp"
scf_method="DFT"
dft_xc="LDA_X,LDA_C_PZ"
solver_newton=False
MP2_flag=False
CCSD_flag=False
pyscf_output="out.pyscf"
twist_average=False
exp_to_discard=0.1
kpt=[0.0, 0.0, 0.0]
kpt_grid=[1, 1, 1]
smearing_method="fermi"
smearing_sigma=0.0

pyscf_calc=Pyscf_wrapper(
                        structure_file=structure_file,
                        chkfile=pyscf_chkfile,
                        )

pyscf_calc.run_pyscf(
                  omp_num_threads=omp_num_threads,
                  charge=charge,
                  spin=spin,
                  basis=basis,
                  ecp=ecp,
                  scf_method=scf_method,
                  dft_xc=dft_xc,
                  solver_newton=solver_newton,
                  MP2_flag=MP2_flag,
                  CCSD_flag=CCSD_flag,
                  pyscf_output=pyscf_output,
                  twist_average=twist_average,
                  exp_to_discard=exp_to_discard,
                  kpt=kpt,
                  kpt_grid=kpt_grid,
                  smearing_method=smearing_method,
                  smearing_sigma=smearing_sigma
                  )
                #INFO: ******************** input file end ********************


System: uname_result(system='Linux', node='spcc-104', release='5.4.0-66-generic', version='#74-Ubuntu SMP Wed Jan 27 22:54:38 UTC 2021', machine='x86_64', processor='x86_64')  Threads 128
Python 3.7.3 (default, Mar 27 2019, 22:11:17) 
[GCC 7.3.0]
numpy 1.21.6  scipy 1.7.3
Date: Wed Dec 28 11:29:21 2022
PySCF version 2.1.1
PySCF path  /home/nkousuke/application/anaconda3/lib/python3.7/site-packages/pyscf

[CONFIG] conf_file /home/nkousuke/.pyscf_conf.py
[INPUT] verbose = 5
[INPUT] max_memory = 505154.7890625 
[INPUT] num. atoms = 2
[INPUT] num. electrons = 2
[INPUT] charge = 0
[INPUT] spin (= nelec alpha-beta = 2S) = 0
[INPUT] symmetry False subgroup None
[INPUT] Mole.unit = A
[INPUT] Symbol           X                Y                Z      unit          X                Y                Z       unit  Magmom
[INPUT]  1 Li     0.000000000000   0.000000000000   0.398900000000 AA    0.000000000000   0.000000000000   0.753811751089 Bohr   0.0
[INPUT]  2 H      0.000000000000   0.000000000000  -1.196800000000 AA    0.000000000000   0.000000000000  -2.261624225879 Bohr   0.0
[INPUT] ---------------- BASIS SET ---------------- 
[INPUT] l, kappa, [nprim/nctr], expnt,             c_1 c_2 ...
[INPUT] H
[INPUT] 0    0    [8    /1   ]  23.843185         0.0041149
                                10.212443         0.0104644
                                4.374164          0.0280111
                                1.873529          0.0758862
                                0.802465          0.1821062
                                0.343709          0.3485214
                                0.147217          0.3782313
                                0.063055          0.1164241
[INPUT] 0    0    [1    /1   ]  0.081856             1
[INPUT] 0    0    [1    /1   ]  0.233254             1
[INPUT] 0    0    [1    /1   ]  0.664673             1
[INPUT] 1    0    [1    /1   ]  0.284469             1
[INPUT] 1    0    [1    /1   ]  0.847159             1
[INPUT] 1    0    [1    /1   ]  2.522868             1
[INPUT] 2    0    [1    /1   ]  0.665279             1
[INPUT] 2    0    [1    /1   ]  2.048739             1
[INPUT] 3    0    [1    /1   ]  1.42146              1
[INPUT] Li
[INPUT] 0    0    [10   /1   ]  16.001258         4.34e-05
                                7.583113          -0.0007531
                                3.593693          -0.0002519
                                1.703077          0.0169674
                                0.807101          -0.0909921
                                0.382491          -0.0893155
                                0.181265          0.0294155
                                0.085903          0.364402
                                0.04071           0.5504973
                                0.019293          0.1744412
[INPUT] 0    0    [1    /1   ]  0.519693             1
[INPUT] 0    0    [1    /1   ]  0.10977              1
[INPUT] 0    0    [1    /1   ]  0.024834             1
[INPUT] 1    0    [10   /1   ]  7.004881          -0.0005306
                                3.451199          0.0012949
                                1.700353          0.0070115
                                0.837738          0.0171604
                                0.412741          0.036724
                                0.203351          0.0965042
                                0.100188          0.2211013
                                0.049361          0.3835358
                                0.02432           0.3350564
                                0.011982          0.0781453
[INPUT] 1    0    [1    /1   ]  0.207505             1
[INPUT] 1    0    [1    /1   ]  0.115823             1
[INPUT] 1    0    [1    /1   ]  0.070662             1
[INPUT] 2    0    [1    /1   ]  0.21499              1
[INPUT] 2    0    [1    /1   ]  0.089353             1
[INPUT] 2    0    [1    /1   ]  0.029817             1
[INPUT] 3    0    [1    /1   ]  0.240323             1
[INPUT] 3    0    [1    /1   ]  0.09993              1
[INPUT] 4    0    [1    /1   ]  0.19957              1

nuclear repulsion = 0.331627004399323
number of shells = 24
number of NR pGTOs = 127
number of NR cGTOs = 84
basis = ccecp-ccpvqz
ecp = ccecp
CPU time:         0.96


******** <class 'pyscf.df.df_jk.density_fit.<locals>.DensityFitting'> ********
method = DensityFitting-RKS
initial guess = minao
damping factor = 0
level_shift factor = 0
DIIS = <class 'pyscf.scf.diis.CDIIS'>
diis_start_cycle = 1
diis_space = 8
SCF conv_tol = 1e-09
SCF conv_tol_grad = None
SCF max_cycles = 200
direct_scf = True
direct_scf_tol = 1e-13
chkfile to save SCF result = pyscf.chk
max_memory 505154 MB (current use 103 MB)
XC library pyscf.dft.libxc version 5.2.0
    S. Lehtola, C. Steigemann, M. J. Oliveira, and M. A. Marques, SoftwareX 7, 1 (2018)
XC functionals = LDA_X,LDA_C_PZ
    P. A. M. Dirac, Math. Proc. Cambridge Philos. Soc. 26, 376 (1930)
    F. Bloch, Z. Phys. 57, 545 (1929)
    J. P. Perdew and A. Zunger, Phys. Rev. B 23, 5048 (1981)
radial grids: 
    Treutler-Ahlrichs [JCP 102, 346 (1995); DOI:10.1063/1.469408] (M4) radial grids
    
becke partition: Becke, JCP 88, 2547 (1988); DOI:10.1063/1.454033
pruning grids: <function nwchem_prune at 0x14d4b18261e0>
grids dens level: 3
symmetrized grids: False
atomic radii adjust function: <function treutler_atomic_radii_adjust at 0x14d4b18260d0>
small_rho_cutoff = 1e-07
Set gradient conv threshold to 3.16228e-05
atom Li rad-grids = 75, ang-grids = [ 50  50  50  50  50  50  50  50  50  50  50  50  50  50  50  50  50  50
  50  50  50  50  50  50  50  50  50  50  50  86  86  86  86  86  86  86
  86  86  86  86  86 266 266 266 266 266 266 266 266 266 302 302 302 302
 302 302 302 302 302 302 302 302 302 302 302 302 302 302 302 302 266 266
 266 266 266]
atom H rad-grids = 50, ang-grids = [ 50  50  50  50  50  50  50  50  50  50  50  50  50  50  86  86  86  86
 266 266 266 266 302 302 302 302 302 302 302 302 302 302 302 302 302 266
 266 266 266 266 266 266 266 266 266 266 266 266 266 266]
tot_boxes 972, boxes in each direction [ 7  7 10]
Padding 2 grids
tot grids = 22272
Drop grids 809
prune_by_density_: 1 padding grids
    CPU time for setting up grids     13.30 sec, wall time      0.16 sec
nelec by numeric integration = 1.9999919363884942
    CPU time for vxc     14.45 sec, wall time      0.12 sec
Even tempered Gaussians are generated as DF auxbasis for  H Li
  ETB auxbasis for H  [[0, [32.28416, 1]], [0, [16.14208, 1]], [0, [8.07104, 1]], [0, [4.03552, 1]], [0, [2.01776, 1]], [0, [1.00888, 1]], [0, [0.50444, 1]], [0, [0.25222, 1]], [0, [0.12611, 1]], [1, [8.571507550502421, 1]], [1, [4.2857537752512105, 1]], [1, [2.1428768876256052, 1]], [1, [1.0714384438128026, 1]], [1, [0.5357192219064013, 1]], [1, [0.26785961095320066, 1]], [2, [4.551504, 1]], [2, [2.275752, 1]], [2, [1.137876, 1]], [2, [0.568938, 1]]]
  ETB auxbasis for Li  [[0, [2.469504, 1]], [0, [1.234752, 1]], [0, [0.617376, 1]], [0, [0.308688, 1]], [0, [0.154344, 1]], [0, [0.077172, 1]], [0, [0.038586, 1]], [1, [3.892283857471857, 1]], [1, [1.9461419287359285, 1]], [1, [0.9730709643679643, 1]], [1, [0.4865354821839821, 1]], [1, [0.24326774109199106, 1]], [1, [0.12163387054599553, 1]], [1, [0.060816935272997766, 1]], [1, [0.030408467636498883, 1]], [2, [6.134784, 1]], [2, [3.067392, 1]], [2, [1.533696, 1]], [2, [0.766848, 1]], [2, [0.383424, 1]], [2, [0.191712, 1]], [2, [0.095856, 1]], [2, [0.047928, 1]], [2, [0.023964, 1]]]
num shells = 43, num cGTOs = 123
    CPU time for df-vj      9.67 sec, wall time      0.08 sec
E1 = -1.2690788178233645  Ecoul = 0.7116872985079498  Exc = -0.4045002739504615
init E= -0.630264788866553
cond(S) = 12448.478034291084
    CPU time for initialize scf     57.13 sec, wall time      0.63 sec
  HOMO = -0.27304525946205  LUMO = -0.0792875364395776
  mo_energy =
[-0.27304526 -0.07928754 -0.04245001 -0.04245001  0.01012815  0.0305925
  0.03726012  0.03726012  0.04108157  0.04108157  0.04848326  0.06699487
  0.06699487  0.12335509  0.18926878  0.19063349  0.19063349  0.21003112
  0.21003112  0.25558534  0.26255491  0.26255491  0.27424957  0.27647689
  0.27647689  0.28895927  0.28895927  0.29425925  0.29425925  0.351083
  0.4933409   0.63090254  0.64329831  0.64329831  0.71423124  0.71423124
  0.72270202  0.72270206  0.77766329  0.77766329  0.78624335  0.87608169
  0.87608198  0.89348864  0.89348864  0.90021488  0.90021488  0.96146841
  0.96146841  0.97991343  1.0262249   1.02622521  1.03940524  1.03940524
  1.04797778  1.18945257  1.18945257  1.32100234  1.50614542  2.17035207
  2.17041474  2.32324281  2.32324281  2.4088586   2.61187617  2.73324444
  2.73324444  2.95699667  5.82562316  5.82562316  5.83208963  5.83208963
  5.85613198  5.86577458  5.86621721  5.88728796  7.90168729  7.90248066
  7.95623767  7.95623767  8.15533444  8.33460064  8.33460064  8.48450172]
nelec by numeric integration = 1.9999995908630728
    CPU time for vxc     12.25 sec, wall time      0.10 sec
    CPU time for df-vj      4.27 sec, wall time      0.03 sec
E1 = -1.618819389681098  Ecoul = 1.1077916687541667  Exc = -0.5640533563207972
cycle= 1 E= -0.743454072848405  delta_E= -0.113  |g|= 0.182  |ddm|= 1.65
    CPU time for cycle= 1     17.79 sec, wall time      0.15 sec
  HOMO = -0.093206466028391  LUMO = -0.0260313341170577
  mo_energy =
[-9.32064660e-02 -2.60313341e-02  5.08877117e-03  5.08877117e-03
  5.18602552e-02  6.61676384e-02  7.04650707e-02  7.04700522e-02
  7.17370953e-02  7.17370953e-02  8.77126084e-02  1.03056548e-01
  1.03056548e-01  1.82333230e-01  2.53143782e-01  2.53143782e-01
  2.55184451e-01  2.55186745e-01  2.72225773e-01  3.06977376e-01
  3.14914953e-01  3.14914953e-01  3.23990694e-01  3.33223621e-01
  3.33223621e-01  3.39470293e-01  3.39470293e-01  3.41853301e-01
  3.41853388e-01  4.30424386e-01  5.78287873e-01  7.24262236e-01
  7.47049305e-01  7.47049305e-01  7.77831984e-01  7.77831984e-01
  7.85024296e-01  7.85058335e-01  8.66533328e-01  8.77934470e-01
  8.77934470e-01  9.50383053e-01  9.50391013e-01  9.53275084e-01
  9.53275173e-01  9.55962921e-01  9.55962921e-01  1.02504536e+00
  1.02504536e+00  1.08401055e+00  1.09910536e+00  1.09910536e+00
  1.10032304e+00  1.10034013e+00  1.13165547e+00  1.28680089e+00
  1.28680089e+00  1.42684799e+00  1.68007187e+00  2.35403290e+00
  2.35412073e+00  2.51711699e+00  2.53746090e+00  2.53746090e+00
  2.79627990e+00  2.91817576e+00  2.91817576e+00  3.12765988e+00
  6.06864577e+00  6.06864577e+00  6.07501127e+00  6.07501127e+00
  6.10816156e+00  6.10867531e+00  6.10868197e+00  6.16867558e+00
  8.18159440e+00  8.18250245e+00  8.25335478e+00  8.25335478e+00
  8.45073309e+00  8.61127218e+00  8.61127218e+00  8.75931520e+00]
nelec by numeric integration = 1.9999999014333092
    CPU time for vxc     12.44 sec, wall time      0.10 sec
    CPU time for df-vj      4.96 sec, wall time      0.04 sec
E1 = -1.395405835208137  Ecoul = 0.7164103243980179  Exc = -0.3848064550992003
cycle= 2 E= -0.732174961509996  delta_E= 0.0113  |g|= 0.195  |ddm|= 1.29
    CPU time for cycle= 2     18.76 sec, wall time      0.15 sec
  HOMO = -0.164780944813484  LUMO = -0.0490779518029354
  mo_energy =
[-0.16478094 -0.04907795 -0.01249835 -0.01249835  0.03546524  0.05146105
  0.05725761  0.05725761  0.0588731   0.05887575  0.07027109  0.08855208
  0.08855208  0.15619087  0.22774397  0.22774397  0.23700237  0.23734894
  0.23735034  0.28614265  0.29437492  0.29437492  0.30387795  0.30873023
  0.30873023  0.31999167  0.31999171  0.32163863  0.32163863  0.39645759
  0.54026562  0.68627419  0.70588782  0.70588782  0.75300922  0.75300922
  0.76073782  0.76075611  0.83521381  0.83521381  0.83650791  0.92020913
  0.92021313  0.93080017  0.93080017  0.9324164   0.93241645  0.99939537
  0.99939537  1.04360958  1.07044328  1.07045269  1.0756717   1.0756717
  1.09217076  1.24605461  1.24605461  1.38234173  1.60184755  2.27553488
  2.27561663  2.44335233  2.44335233  2.48127482  2.71432498  2.8370169
  2.8370169   3.05302761  5.96238329  5.96238329  5.96853635  5.96853635
  5.99833897  6.00199489  6.00246075  6.03703575  8.05417965  8.0550133
  8.11678889  8.11678889  8.31459257  8.48368238  8.48368238  8.63260059]
nelec by numeric integration = 1.999999802166577
    CPU time for vxc     12.35 sec, wall time      0.10 sec
    CPU time for df-vj      4.20 sec, wall time      0.03 sec
E1 = -1.5504771893557923  Ecoul = 0.9395648035155381  Exc = -0.48752072379881656
cycle= 3 E= -0.766806105239747  delta_E= -0.0346  |g|= 0.0105  |ddm|= 0.742
    CPU time for cycle= 3     17.87 sec, wall time      0.15 sec
  HOMO = -0.159358832591558  LUMO = -0.0494625399852349
  mo_energy =
[-0.15935883 -0.04946254 -0.01278271 -0.01278271  0.03628763  0.0526863
  0.05821013  0.05821013  0.0588734   0.05887427  0.07132199  0.08871733
  0.08871733  0.15735633  0.22879541  0.22879541  0.23643585  0.23643623
  0.24025771  0.28612671  0.29432427  0.29432427  0.3049423   0.30897422
  0.30897422  0.31997758  0.31997759  0.320461    0.320461    0.39853845
  0.54177514  0.68933525  0.70890955  0.70890955  0.75371427  0.75371427
  0.76016094  0.76016628  0.83775353  0.83775353  0.8427956   0.92058795
  0.92058814  0.93034995  0.93034995  0.93076862  0.93076864  0.99861768
  0.99861768  1.04647652  1.07058946  1.07060055  1.07447737  1.07447737
  1.0935654   1.24865799  1.24865799  1.38535673  1.606448    2.28255012
  2.28263296  2.4496167   2.4496167   2.48574802  2.7197412   2.84336465
  2.84336465  3.05882524  5.97021237  5.97021237  5.97624636  5.97624636
  6.00495047  6.00971615  6.01018241  6.04184548  8.06019164  8.06102892
  8.12173474  8.12173474  8.31938312  8.48932173  8.48932173  8.63821251]
nelec by numeric integration = 1.9999998095635458
    CPU time for vxc     12.05 sec, wall time      0.10 sec
    CPU time for df-vj      4.87 sec, wall time      0.04 sec
E1 = -1.5434498445803335  Ecoul = 0.9267241060057754  Exc = -0.4818557080370462
cycle= 4 E= -0.766954442212281  delta_E= -0.000148  |g|= 0.00073  |ddm|= 0.0595
    CPU time for cycle= 4     18.13 sec, wall time      0.15 sec
  HOMO = -0.159382766337929  LUMO = -0.0503507698261795
  mo_energy =
[-0.15938277 -0.05035077 -0.01330824 -0.01330824  0.03597899  0.0523229
  0.05795336  0.05795336  0.05854966  0.05854997  0.0710063   0.08837645
  0.08837645  0.15691184  0.22832209  0.22832209  0.23583652  0.23583685
  0.24014284  0.28540421  0.29380083  0.29380083  0.30428294  0.30835696
  0.30835696  0.31942508  0.31942508  0.31981202  0.31981202  0.39816432
  0.54140489  0.68898335  0.70855307  0.70855307  0.75319964  0.75319964
  0.75953534  0.75954442  0.83725712  0.83725712  0.84247358  0.91989027
  0.91989044  0.92965899  0.92965899  0.93003134  0.93003136  0.99731144
  0.99731144  1.04568986  1.06986267  1.0698743   1.07379626  1.07379626
  1.09291985  1.24829085  1.24829085  1.38512403  1.60630895  2.28250288
  2.28258543  2.44959621  2.44959621  2.48598547  2.71976548  2.8432428
  2.8432428   3.05878309  5.97018801  5.97018801  5.9762502   5.9762502
  6.00490086  6.00970513  6.010172    6.04177022  8.06010056  8.06093855
  8.12168314  8.12168314  8.31933867  8.48918294  8.48918294  8.63808661]
nelec by numeric integration = 1.9999998092120952
    CPU time for vxc     13.88 sec, wall time      0.11 sec
    CPU time for df-vj      4.34 sec, wall time      0.03 sec
E1 = -1.5428722657851965  Ecoul = 0.9256979764245038  Exc = -0.4814082096526788
cycle= 5 E= -0.766955494614048  delta_E= -1.05e-06  |g|= 0.000154  |ddm|= 0.00696
    CPU time for cycle= 5     19.68 sec, wall time      0.16 sec
  HOMO = -0.159466854143747  LUMO = -0.0505270968334202
  mo_energy =
[-0.15946685 -0.0505271  -0.01340251 -0.01340251  0.0359281   0.05225661
  0.05791119  0.05791119  0.0585059   0.05850666  0.07095379  0.08831691
  0.08831691  0.15682353  0.22822039  0.22822039  0.23573522  0.23573581
  0.24009968  0.28526902  0.29369655  0.29369655  0.30413945  0.30824029
  0.30824029  0.31932498  0.31932499  0.3197118   0.3197118   0.39807086
  0.54132443  0.68886191  0.70843686  0.70843686  0.75307547  0.75307547
  0.75940131  0.75941028  0.83713632  0.83713632  0.84234754  0.91973901
  0.9197391   0.92952051  0.92952051  0.92990402  0.92990404  0.99705339
  0.99705339  1.04550929  1.069695    1.06970604  1.07366088  1.07366088
  1.09277014  1.24818796  1.24818796  1.38501695  1.6062192   2.28242776
  2.2825103   2.44949261  2.44949261  2.48593261  2.71966347  2.84317025
  2.84317025  3.05871089  5.97009123  5.97009123  5.97614364  5.97614364
  6.00478795  6.00960235  6.01006921  6.04164028  8.05998026  8.06081826
  8.12153896  8.12153896  8.3191915   8.48907111  8.48907111  8.63797457]
nelec by numeric integration = 1.999999808834326
    CPU time for vxc     12.87 sec, wall time      0.10 sec
    CPU time for df-vj      3.40 sec, wall time      0.03 sec
E1 = -1.5428952209370324  Ecoul = 0.9257462318095405  Exc = -0.4814335303690035
cycle= 6 E= -0.766955515097172  delta_E= -2.05e-08  |g|= 2.92e-05  |ddm|= 0.000927
    CPU time for cycle= 6     18.34 sec, wall time      0.15 sec
  HOMO = -0.159476655413568  LUMO = -0.0505707074333233
  mo_energy =
[-0.15947666 -0.05057071 -0.01341999 -0.01341999  0.03592037  0.05224402
  0.05790475  0.05790475  0.05850074  0.05850162  0.0709438   0.08830781
  0.08830781  0.15680524  0.22819859  0.22819859  0.23571588  0.23571654
  0.24009294  0.28523604  0.29367831  0.29367831  0.30410796  0.30821205
  0.30821205  0.31930359  0.3193036   0.31969332  0.31969332  0.39805178
  0.54130942  0.68883816  0.7084172   0.7084172   0.75305438  0.75305438
  0.75937764  0.75938657  0.83710973  0.83710973  0.84232397  0.91970453
  0.91970458  0.92949091  0.92949091  0.92987979  0.92987982  0.99698656
  0.99698656  1.0454662   1.06965949  1.06967039  1.07363623  1.07363623
  1.09273587  1.24816891  1.24816891  1.38500314  1.60620404  2.28241612
  2.28249865  2.44947961  2.44947961  2.48593641  2.71965328  2.84315656
  2.84315656  3.05870267  5.97007667  5.97007667  5.97613033  5.97613033
  6.00477098  6.00958845  6.01005532  6.04161886  8.05995895  8.06079697
  8.12151604  8.12151604  8.31916902  8.48904847  8.48904847  8.63795272]
nelec by numeric integration = 1.999999808767578
    CPU time for vxc     12.87 sec, wall time      0.10 sec
    CPU time for df-vj      3.40 sec, wall time      0.03 sec
E1 = -1.5428940187837474  Ecoul = 0.9257454599119942  Exc = -0.48143396151499196
cycle= 7 E= -0.766955515987422  delta_E= -8.9e-10  |g|= 8.4e-07  |ddm|= 0.00022
    CPU time for cycle= 7     17.82 sec, wall time      0.15 sec
  HOMO = -0.159476317738363  LUMO = -0.0505713275199351
  mo_energy =
[-0.15947632 -0.05057133 -0.0134202  -0.0134202   0.03592015  0.05224367
  0.05790448  0.05790448  0.05850069  0.05850158  0.07094361  0.08830766
  0.08830766  0.15680493  0.22819819  0.22819819  0.2357157   0.23571636
  0.24009282  0.28523551  0.29367814  0.29367814  0.30410764  0.30821149
  0.30821149  0.31930317  0.31930318  0.31969326  0.31969326  0.39805149
  0.5413093   0.68883801  0.70841712  0.70841712  0.75305425  0.75305425
  0.75937733  0.75938628  0.83710955  0.83710955  0.84232446  0.91970404
  0.91970409  0.92949047  0.92949047  0.92987962  0.92987964  0.99698579
  0.99698579  1.04546598  1.069659    1.06966992  1.07363593  1.07363593
  1.09273553  1.24816875  1.24816875  1.38500303  1.60620433  2.28241652
  2.28249906  2.44948008  2.44948008  2.48593675  2.71965371  2.84315698
  2.84315698  3.05870304  5.97007732  5.97007732  5.97613099  5.97613099
  6.00477163  6.00958911  6.01005598  6.04161949  8.05995971  8.06079773
  8.1215168   8.1215168   8.31916977  8.48904923  8.48904923  8.63795349]
nelec by numeric integration = 1.999999808768716
    CPU time for vxc     12.33 sec, wall time      0.10 sec
    CPU time for df-vj      3.43 sec, wall time      0.03 sec
E1 = -1.5428929960535975  Ecoul = 0.9257435880477362  Exc = -0.48143311238095754
Extra cycle  E= -0.766955515987496  delta_E= -7.37e-14  |g|= 9.61e-07  |ddm|= 7.28e-06
    CPU time for scf_cycle    203.30 sec, wall time      1.83 sec
    CPU time for SCF    203.30 sec, wall time      1.83 sec
converged SCF energy = -0.766955515987496
