#INFO: **** input file is /home/nkousuke/lustre/toBeSync/turboRVB/05turbo-genius-development/turbogenius_paper/04data/sanity_checks/03pyscf_HF_turbo_VMC_via_trexio/00open_boundary/results/Fe/pyscf-HF-workflow/run.py ****

from pyscf_wrapper import Pyscf_wrapper

# input variables
pyscf_chkfile="pyscf.chk"
structure_file="Fe.xyz"

# input variables
omp_num_threads=128
charge=0
spin=4
basis="ccecp-ccpvtz"
ecp="ccecp"
scf_method="HF"
dft_xc="NA"
solver_newton=False
MP2_flag=False
CCSD_flag=False
pyscf_output="out.pyscf"
twist_average=False
exp_to_discard=0.0
kpt=[0.0, 0.0, 0.0]
kpt_grid=[1, 1, 1]
smearing_method="fermi"
smearing_sigma=0.0

pyscf_calc=Pyscf_wrapper(
                        structure_file=structure_file,
                        chkfile=pyscf_chkfile,
                        )

pyscf_calc.run_pyscf(
                  omp_num_threads=omp_num_threads,
                  charge=charge,
                  spin=spin,
                  basis=basis,
                  ecp=ecp,
                  scf_method=scf_method,
                  dft_xc=dft_xc,
                  solver_newton=solver_newton,
                  MP2_flag=MP2_flag,
                  CCSD_flag=CCSD_flag,
                  pyscf_output=pyscf_output,
                  twist_average=twist_average,
                  exp_to_discard=exp_to_discard,
                  kpt=kpt,
                  kpt_grid=kpt_grid,
                  smearing_method=smearing_method,
                  smearing_sigma=smearing_sigma
                  )
                #INFO: ******************** input file end ********************


System: uname_result(system='Linux', node='spcc-200', release='5.4.0-66-generic', version='#74-Ubuntu SMP Wed Jan 27 22:54:38 UTC 2021', machine='x86_64', processor='x86_64')  Threads 128
Python 3.7.3 (default, Mar 27 2019, 22:11:17) 
[GCC 7.3.0]
numpy 1.20.1  scipy 1.7.3
Date: Mon Dec 19 18:12:00 2022
PySCF version 2.0.1
PySCF path  /home/nkousuke/application/anaconda3/lib/python3.7/site-packages/pyscf

[CONFIG] conf_file /home/nkousuke/.pyscf_conf.py
[INPUT] verbose = 5
[INPUT] max_memory = 507496.90234375 
[INPUT] num. atoms = 1
[INPUT] num. electrons = 16
[INPUT] charge = 0
[INPUT] spin (= nelec alpha-beta = 2S) = 4
[INPUT] symmetry False subgroup None
[INPUT] Mole.unit = A
[INPUT]  1 Fe     0.000000000000   0.000000000000   0.000000000000 AA    0.000000000000   0.000000000000   0.000000000000 Bohr
[INPUT] ---------------- BASIS SET ---------------- 
[INPUT] l, kappa, [nprim/nctr], expnt,             c_1 c_2 ...
[INPUT] Fe
[INPUT] 0    0    [13   /1   ]  84.322332         0.000785
                                44.203528         -0.012781
                                23.288963         0.104635
                                13.385163         -0.119385
                                7.518052          -0.339804
                                4.101835          -0.049994
                                2.253571          0.476955
                                1.134924          0.593222
                                0.56155           0.200151
                                0.201961          0.008591
                                0.108698          -0.002188
                                0.053619          0.000677
                                0.025823          -0.000144
[INPUT] 0    0    [13   /1   ]  84.322332         -0.000162
                                44.203528         0.002921
                                23.288963         -0.025466
                                13.385163         0.031182
                                7.518052          0.086849
                                4.101835          0.006846
                                2.253571          -0.131856
                                1.134924          -0.227746
                                0.56155           -0.173079
                                0.201961          0.136142
                                0.108698          0.434013
                                0.053619          0.477555
                                0.025823          0.128804
[INPUT] 0    0    [13   /1   ]  84.322332         2e-06
                                44.203528         0.004103
                                23.288963         -0.04684
                                13.385163         0.052833
                                7.518052          0.218094
                                4.101835          -0.044999
                                2.253571          -0.287386
                                1.134924          -0.71322
                                0.56155           0.249174
                                0.201961          1.299872
                                0.108698          0.192119
                                0.053619          -0.658616
                                0.025823          -0.521047
[INPUT] 0    0    [13   /1   ]  84.322332         1.2e-05
                                44.203528         0.007598
                                23.288963         -0.094133
                                13.385163         0.127655
                                7.518052          0.435598
                                4.101835          -0.147911
                                2.253571          -1.084477
                                1.134924          -0.887003
                                0.56155           2.449946
                                0.201961          0.167976
                                0.108698          -2.114668
                                0.053619          0.452579
                                0.025823          0.801444
[INPUT] 0    0    [1    /1   ]  0.025823             1
[INPUT] 1    0    [13   /1   ]  125.092775        5.6e-05
                                65.211589         -0.000572
                                34.437599         0.007388
                                18.930704         -0.028481
                                10.873415         -0.063005
                                6.012172          0.024855
                                3.372205          0.277474
                                1.768641          0.425386
                                0.914516          0.314145
                                0.460895          0.090422
                                0.20449           0.006977
                                0.074741          0.001154
                                0.035671          0.000303
[INPUT] 1    0    [13   /1   ]  125.092775        2.5e-05
                                65.211589         -7e-05
                                34.437599         -0.001042
                                18.930704         0.005127
                                10.873415         0.018404
                                6.012172          -0.014692
                                3.372205          -0.061307
                                1.768641          -0.128638
                                0.914516          -0.070637
                                0.460895          -0.016314
                                0.20449           0.380702
                                0.074741          0.523071
                                0.035671          0.235765
[INPUT] 1    0    [13   /1   ]  125.092775        -0.000197
                                65.211589         0.001251
                                34.437599         -0.009154
                                18.930704         0.038201
                                10.873415         0.043097
                                6.012172          -0.029475
                                3.372205          -0.426996
                                1.768641          -0.39484
                                0.914516          0.07723
                                0.460895          1.119881
                                0.20449           -0.066494
                                0.074741          -0.721583
                                0.035671          -0.005695
[INPUT] 1    0    [13   /1   ]  125.092775        0.000264
                                65.211589         -0.001076
                                34.437599         -0.002591
                                18.930704         0.035519
                                10.873415         0.119554
                                6.012172          -0.204714
                                3.372205          -0.760627
                                1.768641          -0.26274
                                0.914516          1.77903
                                0.460895          -0.462742
                                0.20449           -1.24103
                                0.074741          0.940987
                                0.035671          0.083496
[INPUT] 1    0    [1    /1   ]  0.035671             1
[INPUT] 2    0    [11   /1   ]  152.736742        2.9e-05
                                50.772485         0.005238
                                26.253589         0.029325
                                12.137022         0.074901
                                5.853719          0.163411
                                2.856224          0.251057
                                1.386132          0.287603
                                0.670802          0.251862
                                0.33028           0.186736
                                0.170907          0.09357
                                0.086794          0.073811
[INPUT] 2    0    [11   /1   ]  152.736742        -2.6e-05
                                50.772485         -0.006329
                                26.253589         -0.034398
                                12.137022         -0.091765
                                5.853719          -0.201592
                                2.856224          -0.28393
                                1.386132          -0.161981
                                0.670802          0.128822
                                0.33028           0.36016
                                0.170907          0.277592
                                0.086794          0.261403
[INPUT] 2    0    [11   /1   ]  152.736742        5.1e-05
                                50.772485         0.008769
                                26.253589         0.047921
                                12.137022         0.132475
                                5.853719          0.297279
                                2.856224          0.275018
                                1.386132          -0.222842
                                0.670802          -0.619067
                                0.33028           -0.07629
                                0.170907          0.256056
                                0.086794          0.541482
[INPUT] 2    0    [1    /1   ]  0.086794             1
[INPUT] 3    0    [1    /1   ]  0.824745             1
[INPUT] 3    0    [1    /1   ]  3.385699             1
[INPUT] 4    0    [1    /1   ]  2.137024             1

nuclear repulsion = 0
number of shells = 17
number of NR pGTOs = 405
number of NR cGTOs = 63
basis = ccecp-ccpvtz
ecp = ccecp
CPU time:         6.00


******** <class 'pyscf.scf.rohf.ROHF'> ********
method = ROHF-RHF
initial guess = minao
damping factor = 0
level_shift factor = 0
DIIS = <class 'pyscf.scf.diis.CDIIS'>
diis_start_cycle = 1
diis_space = 8
SCF conv_tol = 1e-09
SCF conv_tol_grad = None
SCF max_cycles = 200
direct_scf = True
direct_scf_tol = 1e-13
chkfile to save SCF result = pyscf.chk
max_memory 507496 MB (current use 106 MB)
num. doubly occ = 6  num. singly occ = 4
Set gradient conv threshold to 3.16228e-05
E1 = -224.93457261427525  Ecoul = 103.35729402001789
init E= -121.577278594257
cond(S) = 165.87358195607544
    CPU time for initialize scf    218.55 sec, wall time      5.27 sec

WARN: HOMO 0.119547280810166 >= LUMO 0.119547280810221

                  Roothaan           | alpha              | beta
  Highest 2-occ = 0.0764065990599856 | 0.0764065990599878 | 0.0764065990599878
  Lowest 0-occ =   0.119547280810221 |  0.119547280810222 |  0.119547280810222
  1-occ =          0.076406599059986 | 0.0764065990599876 | 0.0764065990599876
  1-occ =          0.076406599059987 | 0.0764065990599866 | 0.0764065990599866
  1-occ =          0.119547280810165 |  0.119547280810165 |  0.119547280810165
  1-occ =          0.119547280810166 |  0.119547280810165 |  0.119547280810165
  Roothaan mo_energy =
[-3.57556098 -2.11081531 -2.11081531 -2.11081531  0.04449479  0.0764066
  0.0764066   0.0764066   0.11954728  0.11954728  0.11954728  0.11954728
  0.11954728  0.26093109  0.31704499  0.31704499  0.31704499  0.35585465
  0.35585465  0.35585465  0.35585465  0.35585465  0.92352849  1.29376345
  1.29376345  1.29376345  1.36556712  1.36556712  1.36556712  1.36556712
  1.36556712  2.92749064  2.92749064  2.92749064  2.92749064  2.92749064
  2.92749064  2.92749064  3.46813784  4.9771772   4.9771772   4.9771772
  4.9771772   4.9771772   5.18098576  5.18098576  5.18098576  9.63944872
  9.63944872  9.63944872  9.63944872  9.63944872  9.63944872  9.63944872
  9.63944872  9.63944872 10.33119504 10.33119504 10.33119504 10.33119504
 10.33119504 10.33119504 10.33119504]
E1 = -163.01306647774686  Ecoul = 50.29049214707382
cycle= 1 E= -112.722574330673  delta_E= 8.85  |g|= 4.86  |ddm|= 4.56
    CPU time for cycle= 1     21.95 sec, wall time      0.17 sec
  HOMO = -1.70675309242215  LUMO = -1.28304655945907
                  Roothaan           | alpha              | beta
  Highest 2-occ =  -3.93702895658546 |  -4.11336043455183 |  -3.59052262813837
  Lowest 0-occ =   -1.28304655945907 |  -1.31619466796355 |  -1.25155511370961
  1-occ =          -3.63294460286318 |  -3.64987191200377 |  -3.61601729372166
  1-occ =          -3.63196658159298 |  -3.64879344725848 |  -3.61513964287607
  1-occ =          -3.63196438668087 |  -3.64879034256644 |  -3.61513816183231
  1-occ =          -1.70675309242215 |  -1.73454294761429 |  -1.67896572935245
  Roothaan mo_energy =
[-8.28069167 -6.64954882 -6.64953998 -6.64844153 -3.93849479 -3.93702896
 -3.6329446  -3.63196658 -3.63196439 -1.70675309 -1.28304656 -1.28299196
 -1.28031911 -0.68188146 -0.67784068 -0.67175879 -0.66695729 -0.66613699
 -0.47070416 -0.31275129 -0.28491023 -0.28489329 -0.01655482 -0.01218943
 -0.01134776  0.00973311  0.01465955  0.0397137   0.04643102  0.06083755
  0.06084413  0.22345515  0.2246382   0.22511253  0.22997309  0.23138005
  0.23329079  0.24026797  1.07125832  1.31369925  1.3160587   1.31787711
  1.32065381  1.32173241  1.78218826  1.78218828  1.78864934  5.68016885
  5.68066352  5.6808393   5.68204311  5.68241895  5.68323864  5.68468632
  5.77948841  5.77958181  5.78065305  5.78385104  5.78450711  5.78495871
  5.78545817  5.78630306  5.78751178]
E1 = -240.57879192879932  Ecoul = 124.05829865220218
cycle= 2 E= -116.520493276597  delta_E= -3.8  |g|= 7.32  |ddm|= 4.85
    CPU time for cycle= 2     28.16 sec, wall time      0.22 sec

WARN: HOMO -0.00727590927876329 >= LUMO -1.23492789497021

                  Roothaan           | alpha              | beta
  Highest 2-occ =  -1.64578259882544 |   1.35901477874984 |   1.49446063140669
  Lowest 0-occ =   -1.23492789497021 |  0.272036487242967 |    0.2904171502488
  1-occ =         -0.729773113020696 |  0.215061936683958 |   0.63124285678504
  1-occ =          -0.11546933170986 |  0.263496412956242 |  0.308550218611487
  1-occ =         -0.00728512461786613 |   0.25794457399032 |  0.274257379515969
  1-occ =         -0.00727590927876329 |  0.257955034007225 |  0.274287849261356
  Roothaan mo_energy =
[-5.70220643e+00 -4.14106536e+00 -4.14101865e+00 -4.14040394e+00
 -1.64670492e+00 -1.64578260e+00 -1.23492789e+00 -1.23424295e+00
 -1.23416956e+00 -7.29773113e-01 -3.97101948e-01 -3.93963572e-01
 -3.93947766e-01 -1.15469332e-01 -3.19190862e-02 -2.41001324e-02
 -2.16911774e-02 -2.13604030e-02 -7.28512462e-03 -7.27590928e-03
 -6.66898522e-04  2.37248876e-03  3.59022167e-01  4.07038921e-01
  4.09881107e-01  4.13351248e-01  4.16920407e-01  4.17380010e-01
  4.24018052e-01  4.24049526e-01  4.29125845e-01  1.52637460e+00
  1.52708694e+00  1.52740432e+00  1.53127115e+00  1.53212884e+00
  1.53319902e+00  1.53860389e+00  2.10206028e+00  3.14197821e+00
  3.14324465e+00  3.16424651e+00  3.16587604e+00  3.16597301e+00
  3.48163195e+00  3.48170010e+00  3.48435072e+00  7.71580930e+00
  7.71585774e+00  7.71630684e+00  7.72122666e+00  7.72149152e+00
  7.72278852e+00  7.72305605e+00  7.72352523e+00  7.72561456e+00
  8.17673640e+00  8.17697105e+00  8.17712596e+00  8.18404291e+00
  8.18435435e+00  8.18467462e+00  8.19361575e+00]
E1 = -200.0750992240462  Ecoul = 79.26224057241478
cycle= 3 E= -120.812858651631  delta_E= -4.29  |g|= 0.314  |ddm|= 5.35
    CPU time for cycle= 3     24.56 sec, wall time      0.19 sec
  HOMO = -0.605970779874006  LUMO = -0.232829523051581
                  Roothaan           | alpha              | beta
  Highest 2-occ =  -1.62324997746816 |  -1.65800352571517 |  -1.63928225877263
  Lowest 0-occ =  -0.232829523051581 | -0.282375906485973 | -0.195481203830156
  1-occ =         -0.729475416259591 | -0.760755818272871 | -0.739089802521257
  1-occ =         -0.729242974773689 | -0.760537070287842 |  -0.73887411576873
  1-occ =         -0.725299984834413 | -0.757909936813628 | -0.733543229988563
  1-occ =         -0.605970779874006 | -0.828011197703028 | -0.404887947792655
  Roothaan mo_energy =
[-5.34791192 -3.79784462 -3.79467795 -3.79462397 -1.62559934 -1.62324998
 -0.72947542 -0.72924297 -0.72529998 -0.60597078 -0.23282952 -0.22530019
 -0.22517583 -0.08610024 -0.01560911 -0.01546428  0.03574046  0.05069158
  0.05369079  0.06181727  0.06447009  0.06973468  0.43038362  0.53980423
  0.54173536  0.54647925  0.54671839  0.54939221  0.58187796  0.58227558
  0.58537171  1.81108294  1.81271179  1.81424994  1.82147771  1.82486152
  1.82873316  1.84070297  2.32376606  3.40938783  3.41211523  3.49938303
  3.49968561  3.50375877  3.76244345  3.76749212  3.76778524  8.08187449
  8.08371983  8.08476716  8.09736411  8.09754898  8.10071415  8.10244309
  8.10449147  8.10902038  8.54134631  8.54225767  8.54335624  8.56096802
  8.56316768  8.56549761  8.59011974]
E1 = -228.7128726823833  Ecoul = 106.99572531761254
cycle= 4 E= -121.717147364771  delta_E= -0.904  |g|= 2.48  |ddm|= 5.28
    CPU time for cycle= 4     33.77 sec, wall time      0.26 sec

WARN: HOMO 0.0663662502710158 >= LUMO -0.575461684631025

                  Roothaan           | alpha              | beta
  Highest 2-occ =  -1.33801399695813 |  0.308046325002348 |  0.416433572548052
  Lowest 0-occ =  -0.575461684631025 |  0.229729429693389 |  0.261762773451501
  1-occ =         -0.471640401271407 | -0.0402342894115208 |  0.373865369098519
  1-occ =         -0.139764271497305 |  0.229254188629634 |  0.308864886747281
  1-occ =         -0.0291871248805728 |  0.189067126142736 |   0.21320238465087
  1-occ =         0.0663662502710158 |  0.216192587421112 |  0.237572050425841
  Roothaan mo_energy =
[-5.06977987 -3.53067013 -3.52859705 -3.52856301 -1.33972114 -1.338014
 -0.57546168 -0.57532764 -0.572592   -0.4716404  -0.13976427 -0.13201799
 -0.13200484 -0.02918712  0.03291716  0.03312798  0.06636625  0.10593478
  0.10818589  0.11432099  0.11596174  0.11974639  0.49690142  0.65894037
  0.65911579  0.662251    0.66357657  0.66659591  0.70978447  0.71001131
  0.71217278  2.01061765  2.01173593  2.01283949  2.01951408  2.02185808
  2.02448356  2.03495817  2.50046949  3.64175631  3.64358095  3.72777031
  3.72793563  3.73063025  3.98297897  3.98616538  3.98635002  8.34483178
  8.34618333  8.34682814  8.35811257  8.35843961  8.36121129  8.3625259
  8.36387108  8.3682532   8.81931524  8.81991545  8.82069746  8.83704299
  8.83849935  8.84002092  8.86231072]
E1 = -200.97746198888143  Ecoul = 79.83749671673047
cycle= 5 E= -121.139965272151  delta_E= 0.577  |g|= 0.403  |ddm|= 6.67
    CPU time for cycle= 5     37.36 sec, wall time      0.29 sec
  HOMO = -0.456579202042496  LUMO = -0.183913638311444
                  Roothaan           | alpha              | beta
  Highest 2-occ =  -1.33489631054622 |  -1.61373758478732 |  -1.59246656774596
  Lowest 0-occ =  -0.183913638311444 | -0.480013772261322 | -0.124582232881485
  1-occ =         -0.526503560776383 | -0.719498375963015 | -0.701549750092445
  1-occ =         -0.518982484713476 | -0.713104399633331 | -0.680528218115624
  1-occ =          -0.51880433074249 | -0.712241212668617 | -0.683682253111198
  1-occ =         -0.456579202042496 | -0.781519606469293 | -0.326900147339238
  Roothaan mo_energy =
[-5.0529899  -3.51290705 -3.51260009 -3.50615071 -1.33994834 -1.33489631
 -0.52650356 -0.51898248 -0.51880433 -0.4565792  -0.18391364 -0.11445636
 -0.11443662 -0.01849812  0.0425858   0.0682945   0.06840391  0.12022242
  0.12645133  0.12852965  0.13623645  0.13796286  0.51701916  0.6829573
  0.68464479  0.68473717  0.68932425  0.70048988  0.72798477  0.73631407
  0.7371765   2.03079408  2.03410348  2.03804191  2.0472109   2.04839088
  2.05692745  2.06471796  2.52063468  3.65870434  3.66520934  3.74373276
  3.75263341  3.75294859  4.00162765  4.00167984  4.01322382  8.35416003
  8.35441133  8.3615138   8.36969715  8.37368161  8.3742882   8.37623296
  8.38104165  8.3835312   8.83169353  8.83442528  8.83559686  8.84997364
  8.85350342  8.85781859  8.87859574]
E1 = -227.409265349616  Ecoul = 105.46719958261616
cycle= 6 E= -121.942065767  delta_E= -0.802  |g|= 2.14  |ddm|= 6.66
    CPU time for cycle= 6     28.15 sec, wall time      0.22 sec
  HOMO = -0.430115978804162  LUMO = -0.15833127950065
                  Roothaan           | alpha              | beta
  Highest 2-occ =  -1.26582041756085 |  0.207737778288691 |  0.313142932924193
  Lowest 0-occ =   -0.15833127950065 |  0.180990134187573 |  0.202940676928776
  1-occ =          -0.49424111868263 |  0.139084471435359 |   1.12744520297602
  1-occ =         -0.487946285239336 |  0.139065340508173 |   1.12826536097613
  1-occ =         -0.487880263364138 |  0.136890240883527 |   1.12137498839636
  1-occ =         -0.430115978804162 | -0.073731273600841 |  0.329891689102133
  Roothaan mo_energy =
[-4.98617419e+00 -3.44891201e+00 -3.44857870e+00 -3.44410395e+00
 -1.27017910e+00 -1.26582042e+00 -4.94241119e-01 -4.87946285e-01
 -4.87880263e-01 -4.30115979e-01 -1.58331280e-01 -9.69996742e-02
 -9.69630676e-02 -1.55090954e-03  5.37320447e-02  7.74922333e-02
  7.76245630e-02  1.31743860e-01  1.37544228e-01  1.40641908e-01
  1.47905223e-01  1.49444352e-01  5.36300231e-01  7.11760556e-01
  7.12288736e-01  7.12481568e-01  7.17395228e-01  7.25072121e-01
  7.57343405e-01  7.64452437e-01  7.65185758e-01  2.07325564e+00
  2.07660639e+00  2.07960564e+00  2.08829482e+00  2.08979069e+00
  2.09736958e+00  2.10535667e+00  2.56260610e+00  3.71545711e+00
  3.72113219e+00  3.79602946e+00  3.80324723e+00  3.80377715e+00
  4.05404809e+00  4.05442568e+00  4.06355344e+00  8.41285909e+00
  8.41306808e+00  8.41855234e+00  8.42710136e+00  8.43049729e+00
  8.43062618e+00  8.43275231e+00  8.43697103e+00  8.43974851e+00
  8.89745059e+00  8.89974146e+00  8.90083079e+00  8.91508958e+00
  8.91779520e+00  8.92109585e+00  8.94137121e+00]
E1 = -226.96619037976026  Ecoul = 104.95257066906633
cycle= 7 E= -122.013619710694  delta_E= -0.0716  |g|= 2.01  |ddm|= 0.0897
    CPU time for cycle= 7     46.05 sec, wall time      0.36 sec
  HOMO = -0.463977320669847  LUMO = -0.187186303922251
                  Roothaan           | alpha              | beta
  Highest 2-occ =  -1.34923331728172 |  0.187240795697977 |  0.292235891655551
  Lowest 0-occ =  -0.187186303922251 |  0.181983362314721 |  0.201540882238565
  1-occ =         -0.537256998948723 |  0.109804494272438 |   1.09801042830354
  1-occ =         -0.530646785121282 |  0.109515477187137 |   1.09884657985564
  1-occ =         -0.530524181072707 |  0.108026980606229 |   1.09325310562652
  1-occ =         -0.463977320669847 | -0.0642844481247057 |  0.340530764640536
  Roothaan mo_energy =
[-5.06530911 -3.5244142  -3.52392366 -3.51965904 -1.35387453 -1.34923332
 -0.537257   -0.53064679 -0.53052418 -0.46397732 -0.1871863  -0.11741603
 -0.11735946 -0.01701772  0.04261326  0.06696319  0.06711621  0.11909859
  0.12520349  0.12940358  0.13727437  0.13882805  0.51753523  0.67842598
  0.68055119  0.68080711  0.6846222   0.69629954  0.72438974  0.7321976
  0.73301609  2.02158171  2.02497252  2.02850552  2.03760456  2.03881389
  2.04689507  2.05486081  2.51431442  3.6485557   3.65459745  3.73393597
  3.74159593  3.74212855  3.99259306  3.99305593  4.00265999  8.34193659
  8.34214382  8.34785108  8.35681921  8.36032586  8.36051032  8.36269366
  8.36720652  8.37011811  8.81895561  8.82131548  8.8223949   8.83780192
  8.84049465  8.84375399  8.86562655]
E1 = -227.46468369293203  Ecoul = 105.53101551222971
cycle= 8 E= -121.933668180702  delta_E= 0.08  |g|= 2.15  |ddm|= 0.089
    CPU time for cycle= 8     26.61 sec, wall time      0.21 sec
  HOMO = -0.489903079578572  LUMO = -0.211768540247774
                  Roothaan           | alpha              | beta
  Highest 2-occ =  -1.41209987303557 |  0.230748165712075 |  0.336626821530705
  Lowest 0-occ =  -0.211768540247774 |  0.185666748765273 |  0.205252042119092
  1-occ =         -0.564853148810356 |  0.142640097183466 |   1.13135744705819
  1-occ =          -0.55677621878828 |  0.140071424136204 |   1.12415615438055
  1-occ =         -0.556507669770197 |  0.142706657546367 |   1.13276220940204
  1-occ =         -0.489903079578572 | -0.0480394609158508 |  0.365547171036504
  Roothaan mo_energy =
[-5.12313315 -3.57996186 -3.57966181 -3.57470184 -1.41726544 -1.41209987
 -0.56485315 -0.55677622 -0.55650767 -0.48990308 -0.21176854 -0.13406365
 -0.13401796 -0.03132947  0.03347512  0.05867159  0.05874812  0.10777118
  0.11471679  0.11517526  0.12336502  0.12558391  0.50305428  0.65238128
  0.65600708  0.65607629  0.65916412  0.67472748  0.70008362  0.70861868
  0.70935969  1.98211611  1.98542668  1.99000372  1.99964628  2.00040881
  2.00962508  2.01714655  2.47870762  3.59849955  3.60536434  3.68837349
  3.69737953  3.6978401   3.94690815  3.94713891  3.95841357  8.28895739
  8.28920748  8.29609466  8.30491504  8.30893901  8.3092894   8.31149125
  8.31642319  8.31917417  8.76093992  8.7638149   8.76509777  8.78061395
  8.78402348  8.78830831  8.81068729]
E1 = -227.73509038736313  Ecoul = 105.85476919960769
cycle= 9 E= -121.880321187755  delta_E= 0.0533  |g|= 2.24  |ddm|= 0.0961
    CPU time for cycle= 9     30.16 sec, wall time      0.23 sec
  HOMO = -0.490568830363509  LUMO = -0.210393246298654
                  Roothaan           | alpha              | beta
  Highest 2-occ =    -1.411384056447 |  0.248987390118632 |   0.35500511474665
  Lowest 0-occ =  -0.210393246298654 |  0.185853098298341 |  0.205977978559659
  1-occ =         -0.565501141094973 |   0.16362579006859 |   1.15077963183684
  1-occ =         -0.557791623980037 |  0.161249335027432 |   1.14464291367728
  1-occ =         -0.557454900169468 |  0.163348091296049 |    1.1518734147833
  1-occ =         -0.490568830363509 | -0.0463478372744026 |  0.369186496946022
  Roothaan mo_energy =
[-5.12337294 -3.58020777 -3.57982624 -3.57517    -1.41638835 -1.41138406
 -0.56550114 -0.55779162 -0.5574549  -0.49056883 -0.21039325 -0.13446728
 -0.13437829 -0.03178108  0.03390384  0.05777034  0.05784462  0.10738843
  0.11318415  0.11424761  0.12086617  0.12327753  0.50293779  0.65221413
  0.6554729   0.65558423  0.65882699  0.67388828  0.70047619  0.70893006
  0.70958251  1.98218499  1.98552582  1.98977225  1.99922769  2.00010323
  2.00889466  2.01659964  2.47860986  3.59860331  3.60517425  3.6880133
  3.69677732  3.69709522  3.94676433  3.9469923   3.9578756   8.28937207
  8.28962762  8.29618234  8.30512992  8.30910523  8.30927742  8.3115542
  8.31633987  8.31917776  8.76106549  8.76375844  8.7649619   8.7805948
  8.78388081  8.78789883  8.81038851]
E1 = -227.71255978564682  Ecoul = 105.82967314114535
cycle= 10 E= -121.882886644501  delta_E= -0.00257  |g|= 2.24  |ddm|= 0.0328
    CPU time for cycle= 10     20.46 sec, wall time      0.16 sec
  HOMO = -0.474360505752375  LUMO = -0.200389503775804
                  Roothaan           | alpha              | beta
  Highest 2-occ =  -1.37345664542792 |   0.24242364741458 |   0.34830746083269
  Lowest 0-occ =  -0.200389503775804 |  0.184487578533878 |  0.205476544605404
  1-occ =         -0.544411456426271 |  0.161309613322533 |   1.14746386091751
  1-occ =         -0.536925806681753 |  0.161749680292692 |   1.14945162859762
  1-occ =         -0.536738969925427 |  0.158373577017445 |   1.13913377988316
  1-occ =         -0.474360505752375 | -0.0539664172278228 |  0.360374436459927
  Roothaan mo_energy =
[-5.08736056 -3.54564093 -3.54524448 -3.54060853 -1.37862213 -1.37345665
 -0.54441146 -0.53692581 -0.53673897 -0.47436051 -0.2003895  -0.12365701
 -0.12346391 -0.02245249  0.03743728  0.06492047  0.06498491  0.11414572
  0.12089981  0.12149417  0.12923698  0.13179252  0.51267733  0.66809504
  0.67112639  0.6713116   0.67483457  0.68850589  0.71607705  0.72440773
  0.72537938  2.00518911  2.0085567   2.01291723  2.02257877  2.0233591
  2.03240796  2.03992677  2.50055435  3.62925778  3.63611606  3.71613324
  3.72445858  3.72532022  3.9748952   3.97552397  3.98590464  8.32008996
  8.32026285  8.32665441  8.33544225  8.33921661  8.33936501  8.34160948
  8.3465966   8.34934635  8.79607289  8.79885967  8.80016654  8.81541864
  8.81846271  8.82236415  8.84424372]
E1 = -227.48609312655864  Ecoul = 105.56382718293058
cycle= 11 E= -121.922265943628  delta_E= -0.0394  |g|= 2.17  |ddm|= 0.0555
    CPU time for cycle= 11     26.60 sec, wall time      0.21 sec
  HOMO = -0.445984503950529  LUMO = -0.191900928435658
                  Roothaan           | alpha              | beta
  Highest 2-occ =  -1.31660936271442 |  0.221861593697546 |  0.327319351043672
  Lowest 0-occ =  -0.191900928435658 |   0.18196175094071 |  0.203605850446038
  1-occ =         -0.505326949589425 |  0.143175454534909 |    1.1264188870859
  1-occ =         -0.496020014273589 |  0.143392688949725 |   1.12865685671862
  1-occ =         -0.495771461711955 |  0.137485232759674 |   1.10915127204226
  1-occ =         -0.445984503950529 | -0.0628908906488631 |  0.352381299662802
  Roothaan mo_energy =
[-5.03045824 -3.49130302 -3.49090476 -3.4841198  -1.32335951 -1.31660936
 -0.50532695 -0.49602001 -0.49577146 -0.4459845  -0.19190093 -0.10444227
 -0.10417698 -0.00979064  0.03866806  0.08093091  0.0809487   0.12529599
  0.13178031  0.13561407  0.14316458  0.14671358  0.53034347  0.6958766
  0.70049597  0.7006688   0.7042862   0.71759223  0.74402761  0.75433274
  0.75591568  2.04585198  2.04890379  2.05596853  2.06637675  2.06711307
  2.07791957  2.08405876  2.53864147  3.6770251   3.68591202  3.76232582
  3.77277469  3.77422444  4.02016627  4.02099886  4.03421576  8.37104392
  8.37114457  8.37985727  8.38731099  8.39142743  8.39271977  8.39429958
  8.40053008  8.40252671  8.85133309  8.85502067  8.85651045  8.87070715
  8.87430976  8.87953473  8.89981429]
E1 = -227.19607642769557  Ecoul = 105.2300408912366
cycle= 12 E= -121.966035536459  delta_E= -0.0438  |g|=  2.1  |ddm|= 0.0605
    CPU time for cycle= 12     22.51 sec, wall time      0.17 sec
  HOMO = -0.441740985184782  LUMO = -0.187986697770208
                  Roothaan           | alpha              | beta
  Highest 2-occ =  -1.30715539977918 |  0.199379949202343 |   0.30418532484901
  Lowest 0-occ =  -0.187986697770208 |  0.181893921702214 |  0.203389245742503
  1-occ =           -0.5020446254138 |   0.12494743779926 |   1.10594550466616
  1-occ =         -0.493836051187114 |  0.124409198289823 |   1.10769781299629
  1-occ =         -0.493513815883969 |  0.120082175759332 |   1.09184906313083
  1-occ =         -0.441740985184782 | -0.0702010836967776 |  0.339714666630026
  Roothaan mo_energy =
[-5.02171144e+00 -3.48279545e+00 -3.48234797e+00 -3.47616804e+00
 -1.31339063e+00 -1.30715540e+00 -5.02044625e-01 -4.93836051e-01
 -4.93513816e-01 -4.41740985e-01 -1.87986698e-01 -1.02039331e-01
 -1.01741147e-01 -6.41818209e-03  4.03910402e-02  8.21718843e-02
  8.22345048e-02  1.27103718e-01  1.34435923e-01  1.37089024e-01
  1.45623663e-01  1.48855799e-01  5.32385083e-01  6.99751347e-01
  7.04110987e-01  7.04434905e-01  7.08001086e-01  7.20461613e-01
  7.47785524e-01  7.57651916e-01  7.59273347e-01  2.05148683e+00
  2.05461777e+00  2.06114671e+00  2.07160032e+00  2.07212303e+00
  2.08275490e+00  2.08903287e+00  2.54365375e+00  3.68476734e+00
  3.69336426e+00  3.76955404e+00  3.77917163e+00  3.78085892e+00
  4.02711671e+00  4.02825028e+00  4.04038353e+00  8.37904030e+00
  8.37910081e+00  8.38709471e+00  8.39479967e+00  8.39866282e+00
  8.39961797e+00  8.40137154e+00  8.40748544e+00  8.40963374e+00
  8.86020119e+00  8.86365955e+00  8.86518854e+00  8.87947356e+00
  8.88273317e+00  8.88744823e+00  8.90787100e+00]
E1 = -227.13129606162886  Ecoul = 105.1539617996053
cycle= 13 E= -121.977334262024  delta_E= -0.0113  |g|= 2.08  |ddm|= 0.0208
    CPU time for cycle= 13     23.56 sec, wall time      0.19 sec

WARN: HOMO 0.0623536692988391 >= LUMO 0.0251824059295936

                  Roothaan           | alpha              | beta
  Highest 2-occ = -0.332356587640143 | 0.0855798597407026 |  0.186116885222249
  Lowest 0-occ =  0.0251824059295936 | 0.0991198303512435 |   0.27914780914534
  1-occ =         -0.092653066235244 | -0.147711623947295 |  0.153272681416827
  1-occ =         0.0605654281868639 | 0.0688421515978738 |  0.087034754383322
  1-occ =         0.0617031640071133 | 0.0694741154712394 | 0.0851706865591345
  1-occ =         0.0623536692988391 | 0.0692600220297534 | 0.0848297214040803
  Roothaan mo_energy =
[-3.99408511 -2.50550108 -2.50400495 -2.50317779 -0.33428003 -0.33235659
 -0.09265307  0.02518241  0.06056543  0.06170316  0.06235367  0.06993299
  0.07535069  0.21977574  0.26214301  0.2634432   0.26380663  0.28072479
  0.28089089  0.28685463  0.28705364  0.29224072  0.84569798  1.16083476
  1.16260167  1.16351277  1.17619461  1.17758452  1.19942807  1.20310102
  1.2032413   2.7254068   2.72554774  2.72588444  2.73196384  2.734119
  2.7359207   2.74419284  3.21253473  4.57461325  4.57494632  4.6061163
  4.61007834  4.61157484  4.84412661  4.84799098  4.85169394  9.3039055
  9.3046607   9.30788206  9.31254341  9.315523    9.31591226  9.31705631
  9.31787202  9.31945457  9.89027773  9.89108264  9.89167312  9.89745486
  9.89878733  9.90092703  9.90847194]
E1 = -190.93552295143434  Ecoul = 70.77899248368863
cycle= 14 E= -120.156530467746  delta_E= 1.82  |g|= 2.64  |ddm|= 3.06
    CPU time for cycle= 14     17.40 sec, wall time      0.14 sec
  HOMO = -0.095121456670697  LUMO = 0.0130054411378865
                  Roothaan           | alpha              | beta
  Highest 2-occ = -0.595104913982893 |  -2.17856270116094 |  -2.16818797465048
  Lowest 0-occ =  0.0130054411378865 | -0.331304853355386 | -0.105391452264681
  1-occ =         -0.172225772827758 | -0.830754690188364 | -0.491037148664652
  1-occ =         -0.102051163882943 |  -1.37046646926531 |  -1.35787819494835
  1-occ =         -0.0980490484794372 |  -1.36377503582547 |  -1.34002372908164
  1-occ =         -0.095121456670697 |  -1.35591391268738 |  -1.34226304603459
  Roothaan mo_energy =
[-4.28781878 -2.78559836 -2.78326565 -2.78307511 -0.5972834  -0.59510491
 -0.17222577 -0.10205116 -0.09804905 -0.09512146  0.01300544  0.01407445
  0.01420104  0.12949981  0.19834216  0.19970238  0.20023201  0.23223912
  0.23225817  0.23483994  0.23554661  0.23580913  0.73837485  1.0160137
  1.01872083  1.02011841  1.025649    1.02687762  1.06017016  1.06213336
  1.06486453  2.52594562  2.52686842  2.52709673  2.53468292  2.53571079
  2.53661287  2.54689093  3.0113761   4.31688456  4.31706776  4.35965332
  4.36366715  4.36632081  4.60408853  4.60878473  4.61257731  9.03714473
  9.03814859  9.04127377  9.04720209  9.05007959  9.05125937  9.0521431
  9.05308628  9.05537433  9.59576193  9.59629292  9.59716706  9.60467208
  9.60655441  9.60903034  9.61954083]
E1 = -220.7370995502931  Ecoul = 98.21230615046602
cycle= 15 E= -122.524793399827  delta_E= -2.37  |g|= 0.482  |ddm|= 2.88
    CPU time for cycle= 15     18.92 sec, wall time      0.15 sec
  HOMO = -0.028791388710834  LUMO = 0.046482902070074
                  Roothaan           | alpha              | beta
  Highest 2-occ = -0.445987971669619 | -0.291977423175958 | -0.201063595866522
  Lowest 0-occ =   0.046482902070074 | 0.0500252259214715 | 0.0815825194003541
  1-occ =          -0.11149244509382 | -0.221321963930054 | 0.0892805494046556
  1-occ =         -0.0362364558989263 | -0.299536691382818 |  0.621228488285655
  1-occ =         -0.0336453504714835 | -0.293060272130851 |  0.620659439152226
  1-occ =         -0.028791388710834 | -0.293265776295366 |  0.625913376942966
  Roothaan mo_energy =
[-4.14309315 -2.64359083 -2.64244679 -2.6422505  -0.44608644 -0.44598797
 -0.11149245 -0.03623646 -0.03364535 -0.02879139  0.0464829   0.04673343
  0.04684336  0.16210049  0.23521302  0.23634029  0.23694331  0.26206237
  0.26243291  0.28075608  0.28122902  0.28143838  0.78020619  1.09159827
  1.09382107  1.09519837  1.10387411  1.10490585  1.13798261  1.13979417
  1.1418746   2.63402974  2.63510939  2.63533057  2.64254585  2.64292848
  2.64336961  2.65285685  3.10604663  4.44409478  4.44427277  4.48490608
  4.48853396  4.49097518  4.72428384  4.72786453  4.73150704  9.17259517
  9.1734051   9.17611794  9.18146464  9.1838953   9.18492073  9.18598695
  9.18615399  9.18853192  9.74081617  9.74124449  9.74228486  9.74869385
  9.75032655  9.75256706  9.76145647]
E1 = -219.98082241711575  Ecoul = 97.42578053212912
cycle= 16 E= -122.555041884987  delta_E= -0.0302  |g|= 0.273  |ddm|= 0.582
    CPU time for cycle= 16     18.44 sec, wall time      0.15 sec
  HOMO = -0.00266774487682169  LUMO = 0.0514775064355025
                  Roothaan           | alpha              | beta
  Highest 2-occ = -0.402941064700516 | -0.330159766215805 | -0.238937886889066
  Lowest 0-occ =  0.0514775064355025 | 0.0469812216788342 | 0.0776447214783582
  1-occ =         -0.100824501320311 |  -0.22179692882564 | 0.0734744506402392
  1-occ =         -0.00913063570228404 | -0.365854563652778 |   0.56269270637842
  1-occ =         -0.00793996409580485 | -0.358600395207795 |  0.562989557246707
  1-occ =         -0.00266774487682169 | -0.359522502770919 |  0.568802393029787
  Roothaan mo_energy =
[-4.10294586e+00 -2.60538607e+00 -2.60422809e+00 -2.60381904e+00
 -4.04137031e-01 -4.02941065e-01 -1.00824501e-01 -9.13063570e-03
 -7.93996410e-03 -2.66774488e-03  5.14775064e-02  5.19875963e-02
  5.20907241e-02  1.71040812e-01  2.44526746e-01  2.45289519e-01
  2.45835064e-01  2.68062361e-01  2.68511682e-01  2.76469484e-01
  2.76888371e-01  2.77514229e-01  7.92825291e-01  1.11039462e+00
  1.11247379e+00  1.11389071e+00  1.12550918e+00  1.12630191e+00
  1.15758870e+00  1.15908782e+00  1.16096963e+00  2.66131170e+00
  2.66194128e+00  2.66232666e+00  2.66885222e+00  2.66976779e+00
  2.67077351e+00  2.67944716e+00  3.13285829e+00  4.48080468e+00
  4.48086463e+00  4.51790654e+00  4.52068167e+00  4.52299281e+00
  4.75715061e+00  4.76040210e+00  4.76369475e+00  9.20954872e+00
  9.21030055e+00  9.21276386e+00  9.21790888e+00  9.22003403e+00
  9.22100597e+00  9.22197089e+00  9.22224875e+00  9.22446095e+00
  9.78145537e+00  9.78186661e+00  9.78244296e+00  9.78828157e+00
  9.78994287e+00  9.79197453e+00  9.79985912e+00]
E1 = -219.0741668859035  Ecoul = 96.50619567067724
cycle= 17 E= -122.567971215226  delta_E= -0.0129  |g|= 0.117  |ddm|= 0.432
    CPU time for cycle= 17     18.92 sec, wall time      0.15 sec
  HOMO = 0.00242516099604557  LUMO = 0.0543765095786389
                  Roothaan           | alpha              | beta
  Highest 2-occ = -0.384645526703167 | -0.381828711752615 | -0.292641363797096
  Lowest 0-occ =  0.0543765095786389 | 0.0436659616679874 | 0.0749716326391785
  1-occ =         -0.0979839971934286 | -0.231212537263667 | 0.0590679966981992
  1-occ =         -0.00198550089296325 | -0.407849570280105 |  0.504999587334506
  1-occ =         -0.00179017078955398 | -0.417512474429186 |  0.505711386113252
  1-occ =         0.00242516099604557 | -0.412632743275604 |  0.510578515660132
  Roothaan mo_energy =
[-4.08749347e+00 -2.59060443e+00 -2.59003548e+00 -2.59001857e+00
 -3.85077978e-01 -3.84645527e-01 -9.79839972e-02 -1.98550089e-03
 -1.79017079e-03  2.42516100e-03  5.43765096e-02  5.44057745e-02
  5.45065263e-02  1.77635833e-01  2.48414462e-01  2.48932220e-01
  2.49265640e-01  2.71323273e-01  2.71591373e-01  2.76253201e-01
  2.76484434e-01  2.76753093e-01  8.00264951e-01  1.11887901e+00
  1.12026341e+00  1.12091649e+00  1.13540667e+00  1.13590522e+00
  1.16319040e+00  1.16417455e+00  1.16511737e+00  2.67065578e+00
  2.67147030e+00  2.67164292e+00  2.67906514e+00  2.67909036e+00
  2.67911028e+00  2.68862958e+00  3.14454917e+00  4.49638039e+00
  4.49652850e+00  4.53053714e+00  4.53225564e+00  4.53378533e+00
  4.77107282e+00  4.77323021e+00  4.77485858e+00  9.22417812e+00
  9.22484836e+00  9.22603781e+00  9.23172260e+00  9.23249994e+00
  9.23425218e+00  9.23448620e+00  9.23486854e+00  9.23738398e+00
  9.79783907e+00  9.79797587e+00  9.79816619e+00  9.80389147e+00
  9.80516035e+00  9.80662698e+00  9.81396973e+00]
E1 = -218.74836429369032  Ecoul = 96.17891891093848
cycle= 18 E= -122.569445382752  delta_E= -0.00147  |g|= 0.061  |ddm|= 0.532
    CPU time for cycle= 18     20.47 sec, wall time      0.16 sec
  HOMO = 0.00297086361934023  LUMO = 0.0552102630714877
                  Roothaan           | alpha              | beta
  Highest 2-occ = -0.379559955134137 | -0.397665484743067 | -0.308787800709753
  Lowest 0-occ =  0.0552102630714877 | 0.0418474573472257 | 0.0737194407218645
  1-occ =         -0.0968707887821687 | -0.233683916227012 | 0.0542969493588277
  1-occ =         -0.000899354184115893 | -0.439932334385053 |  0.487260696856013
  1-occ =         -0.000698283549061164 | -0.433541847716429 |  0.487775449517772
  1-occ =         0.00297086361934023 | -0.436284870478214 |  0.491636105917967
  Roothaan mo_energy =
[-4.08338923e+00 -2.58683564e+00 -2.58616196e+00 -2.58605213e+00
 -3.79923217e-01 -3.79559955e-01 -9.68707888e-02 -8.99354184e-04
 -6.98283549e-04  2.97086362e-03  5.52102631e-02  5.54843718e-02
  5.55534932e-02  1.78655952e-01  2.49497778e-01  2.49972835e-01
  2.50261152e-01  2.72457922e-01  2.72692335e-01  2.78039049e-01
  2.78412103e-01  2.78694793e-01  8.02209187e-01  1.12099965e+00
  1.12243636e+00  1.12314506e+00  1.13807523e+00  1.13852779e+00
  1.16403366e+00  1.16518686e+00  1.16607190e+00  2.67332520e+00
  2.67389380e+00  2.67411466e+00  2.68123884e+00  2.68160874e+00
  2.68208081e+00  2.69122728e+00  3.14756394e+00  4.50053569e+00
  4.50076450e+00  4.53384271e+00  4.53546607e+00  4.53682913e+00
  4.77442244e+00  4.77669593e+00  4.77826599e+00  9.22763302e+00
  9.22832221e+00  9.22952135e+00  9.23515797e+00  9.23590997e+00
  9.23764607e+00  9.23782585e+00  9.23834699e+00  9.24075997e+00
  9.80220249e+00  9.80225749e+00  9.80236913e+00  9.80807094e+00
  9.80920790e+00  9.81055971e+00  9.81773651e+00]
E1 = -218.7865016523226  Ecoul = 96.21486361387949
cycle= 19 E= -122.571638038443  delta_E= -0.00219  |g|= 0.0496  |ddm|= 0.328
    CPU time for cycle= 19     46.54 sec, wall time      0.36 sec
  HOMO = 0.01153830797115  LUMO = 0.0575490436135484
                  Roothaan           | alpha              | beta
  Highest 2-occ = -0.363491467907593 | -0.394425037986315 | -0.305362917610019
  Lowest 0-occ =  0.0575490436135484 | 0.0429191070236294 | 0.0736947531882549
  1-occ =         -0.092091660628518 | -0.232326152851221 | 0.0538225820357295
  1-occ =         0.00893150809040485 | -0.439444644936714 |  0.490044297808892
  1-occ =         0.0101977277156664 | -0.436936634053838 |  0.491485721600492
  1-occ =           0.01153830797115 | -0.436277250418568 |  0.493710185669415
  Roothaan mo_energy =
[-4.06823612e+00 -2.57213812e+00 -2.57177130e+00 -2.57161411e+00
 -3.63506773e-01 -3.63491468e-01 -9.20916606e-02  8.93150809e-03
  1.01977277e-02  1.15383080e-02  5.75490436e-02  5.77037440e-02
  5.77783602e-02  1.78306569e-01  2.53174633e-01  2.53485537e-01
  2.53721205e-01  2.75434416e-01  2.75585147e-01  2.80166057e-01
  2.80515585e-01  2.80569610e-01  8.06963705e-01  1.12872345e+00
  1.12964375e+00  1.13016521e+00  1.14680357e+00  1.14702480e+00
  1.17028868e+00  1.17117761e+00  1.17157963e+00  2.68373692e+00
  2.68414985e+00  2.68420655e+00  2.69160066e+00  2.69188532e+00
  2.69216293e+00  2.70146027e+00  3.15782023e+00  4.51492035e+00
  4.51498668e+00  4.54651471e+00  4.54761888e+00  4.54846290e+00
  4.78750980e+00  4.78894590e+00  4.79008398e+00  9.24179607e+00
  9.24231330e+00  9.24310525e+00  9.24892353e+00  9.24931572e+00
  9.25111002e+00  9.25129642e+00  9.25156847e+00  9.25417052e+00
  9.81772558e+00  9.81781077e+00  9.81784731e+00  9.82349850e+00
  9.82430046e+00  9.82520880e+00  9.83218947e+00]
E1 = -218.54048622067467  Ecoul = 95.96834920841091
cycle= 20 E= -122.572137012264  delta_E= -0.000499  |g|= 0.00363  |ddm|= 0.0445
    CPU time for cycle= 20     14.84 sec, wall time      0.12 sec
  HOMO = 0.0119470865501259  LUMO = 0.0578253341158952
                  Roothaan           | alpha              | beta
  Highest 2-occ = -0.362059815850557 |   -0.4067383955316 | -0.317959064921375
  Lowest 0-occ =  0.0578253341158952 | 0.0421945337717827 | 0.0731332921084755
  1-occ =         -0.0914168747406371 | -0.234309740916978 |  0.051187795991011
  1-occ =         0.00991705767653038 | -0.454577640953183 |  0.474233459688927
  1-occ =          0.010878459092436 |  -0.45344824432089 |  0.475100764577079
  1-occ =         0.0119470865501259 | -0.452526200900955 |  0.476646188958929
  Roothaan mo_energy =
[-4.06709413 -2.57091901 -2.570629   -2.57052976 -0.36210179 -0.36205982
 -0.09141687  0.00991706  0.01087846  0.01194709  0.05782533  0.05795017
  0.05800418  0.17826368  0.2535629   0.25381458  0.253984    0.27567228
  0.27579152  0.28059502  0.28060186  0.28092799  0.80731295  1.1295723
  1.1303009   1.13068994  1.1475344   1.14772936  1.17128449  1.17176161
  1.17231912  2.68483325  2.68517011  2.68521028  2.69271203  2.69290759
  2.69310158  2.70247003  3.15869343  4.51606516  4.51608967  4.54774013
  4.54852852  4.54926283  4.78881704  4.78991599  4.79081541  9.24314729
  9.24357624  9.24416147  9.250147    9.25038657  9.25226754  9.25240389
  9.25260701  9.25531003  9.81893113  9.8189985   9.81904603  9.8248628
  9.82548996  9.82615177  9.83331406]
E1 = -218.51840445934477  Ecoul = 95.94623809348064
cycle= 21 E= -122.572166365864  delta_E= -2.94e-05  |g|= 0.00339  |ddm|= 0.0192
    CPU time for cycle= 21     20.98 sec, wall time      0.16 sec
  HOMO = 0.0116838116444522  LUMO = 0.0577853800375441
                  Roothaan           | alpha              | beta
  Highest 2-occ = -0.362483860633642 | -0.408000157086211 | -0.319284888907398
  Lowest 0-occ =  0.0577853800375441 | 0.0421797150964199 | 0.0731232796514889
  1-occ =         -0.0914769203076926 | -0.234644273551446 | 0.0511021507633485
  1-occ =         0.00983254489385361 | -0.455489231953769 |  0.472824608777292
  1-occ =         0.0106714690524796 | -0.454432239654422 |  0.473680338505695
  1-occ =         0.0116838116444522 | -0.453756901379298 |  0.474778754404863
  Roothaan mo_energy =
[-4.06752048e+00 -2.57129548e+00 -2.57101753e+00 -2.57093156e+00
 -3.62545222e-01 -3.62483861e-01 -9.14769203e-02  9.83254489e-03
  1.06714691e-02  1.16838116e-02  5.77853800e-02  5.79010776e-02
  5.79456208e-02  1.78128227e-01  2.53511464e-01  2.53740936e-01
  2.53890154e-01  2.75619540e-01  2.75730760e-01  2.80533578e-01
  2.80642379e-01  2.80800559e-01  8.07168335e-01  1.12947393e+00
  1.13012449e+00  1.13047183e+00  1.14733808e+00  1.14751958e+00
  1.17128642e+00  1.17166118e+00  1.17222447e+00  2.68465254e+00
  2.68495217e+00  2.68499453e+00  2.69252043e+00  2.69269637e+00
  2.69288094e+00  2.70226147e+00  3.15842165e+00  4.51566923e+00
  4.51570095e+00  4.54749518e+00  4.54820277e+00  4.54889288e+00
  4.78857690e+00  4.78958947e+00  4.79039995e+00  9.24285665e+00
  9.24326127e+00  9.24378482e+00  9.24983283e+00  9.25002448e+00
  9.25193997e+00  9.25204542e+00  9.25225255e+00  9.25497719e+00
  9.81851985e+00  9.81856860e+00  9.81861533e+00  9.82450338e+00
  9.82508000e+00  9.82568459e+00  9.83291852e+00]
E1 = -218.52507830138904  Ecoul = 95.9529020791359
cycle= 22 E= -122.572176222253  delta_E= -9.86e-06  |g|= 0.00206  |ddm|= 0.00647
    CPU time for cycle= 22     20.97 sec, wall time      0.16 sec
  HOMO = 0.0112573092753443  LUMO = 0.0578115758612434
                  Roothaan           | alpha              | beta
  Highest 2-occ = -0.362726283066954 | -0.407734691812603 |  -0.31891525501268
  Lowest 0-occ =  0.0578115758612434 | 0.0422397045471786 | 0.0731537471877528
  1-occ =         -0.0915113280872167 |  -0.23461504283396 | 0.0512634145226099
  1-occ =         0.0103018996387484 | -0.454832821151189 |  0.473280582502368
  1-occ =          0.010974127689109 | -0.454017839129373 |  0.474148461663002
  1-occ =         0.0112573092753443 | -0.453286071458052 |  0.475113799360239
  Roothaan mo_energy =
[-4.06770934 -2.57136368 -2.57121394 -2.57116343 -0.36281153 -0.36272628
 -0.09151133  0.0103019   0.01097413  0.01125731  0.05781158  0.05787429
  0.05789699  0.17778246  0.25360875  0.25372578  0.25380368  0.2756802
  0.27572881  0.28055516  0.28057211  0.28070665  0.80717029  1.12972033
  1.13004879  1.13023278  1.14738792  1.14746951  1.17148228  1.17170355
  1.17198373  2.68471664  2.68485983  2.68488043  2.69254452  2.69265555
  2.69275844  2.7022238   3.15833045  4.51553789  4.51554175  4.54770982
  4.54805844  4.54844954  4.78890376  4.78942919  4.78985428  9.24299339
  9.24322934  9.24348303  9.24977995  9.24982763  9.25184329  9.25188685
  9.25200691  9.2548519   9.81838286  9.81840236  9.81843376  9.82460786
  9.82491354  9.82521763  9.83272529]
E1 = -218.52796500541064  Ecoul = 95.95576726749843
cycle= 23 E= -122.572197737912  delta_E= -2.15e-05  |g|= 0.00116  |ddm|= 0.0176
    CPU time for cycle= 23     18.43 sec, wall time      0.15 sec
  HOMO = 0.0106741456802307  LUMO = 0.0578046640828663
                  Roothaan           | alpha              | beta
  Highest 2-occ = -0.362998709258741 | -0.407571867707087 | -0.318801951358391
  Lowest 0-occ =  0.0578046640828663 |  0.042338374325264 | 0.0731934077236164
  1-occ =         -0.0916107689082046 | -0.234614761369234 | 0.0512946098809911
  1-occ =         0.0103412579125931 | -0.454254193991185 |   0.47400542396748
  1-occ =         0.0105336805869901 |  -0.45390533266558 |  0.474416834376838
  1-occ =         0.0106741456802307 | -0.453467604711888 |  0.474926893014068
  Roothaan mo_energy =
[-4.06799756 -2.57156748 -2.57152268 -2.57150687 -0.3630464  -0.36299871
 -0.09161077  0.01034126  0.01053368  0.01067415  0.05780466  0.05782424
  0.05783334  0.17803705  0.253583    0.25362471  0.25364825  0.27561759
  0.27563147  0.28056734  0.28059625  0.28063312  0.80705658  1.12972545
  1.1298369   1.12990091  1.1472071   1.14722883  1.17144235  1.17146983
  1.17162582  2.68452611  2.68457848  2.68458028  2.69236551  2.69239396
  2.69242639  2.70196666  3.15811494  4.51526468  4.5152688   4.54769949
  4.54781022  4.54795504  4.78897772  4.78915628  4.7893013   9.24286322
  9.24294886  9.24302863  9.24949588  9.24949771  9.25157151  9.25158071
  9.25162392  9.25454648  9.81810406  9.81810599  9.81811801  9.82451083
  9.82461803  9.82471565  9.83242442]
E1 = -218.5331270578386  Ecoul = 95.96092289300775
cycle= 24 E= -122.572204164831  delta_E= -6.43e-06  |g|= 0.000407  |ddm|= 0.0114
    CPU time for cycle= 24     24.04 sec, wall time      0.19 sec
  HOMO = 0.0105982878715195  LUMO = 0.0578092763204697
                  Roothaan           | alpha              | beta
  Highest 2-occ = -0.363009968376907 | -0.407303232035915 |  -0.31855340843431
  Lowest 0-occ =  0.0578092763204697 |  0.042398232152563 | 0.0732117009664331
  1-occ =         -0.0916157113823113 | -0.234544665180523 | 0.0513310738283616
  1-occ =         0.0104899182376327 | -0.453737163920106 |  0.474579090817377
  1-occ =         0.0105223612113322 | -0.453580604439223 |  0.474782615575306
  1-occ =         0.0105982878715195 | -0.453445008866849 |  0.474920261452582
  Roothaan mo_energy =
[-4.06795151 -2.57150369 -2.57148933 -2.57148297 -0.36301775 -0.36300997
 -0.09161571  0.01048992  0.01052236  0.01059829  0.05780928  0.05781471
  0.05781827  0.17806509  0.25360885  0.25362217  0.2536309   0.27561051
  0.27561113  0.28055653  0.28058999  0.28061145  0.80705624  1.12979895
  1.12983262  1.12985844  1.14721251  1.14721577  1.17152601  1.17153474
  1.17158397  2.68457594  2.68458915  2.68459348  2.69240811  2.69241651
  2.69243008  2.70198832  3.15813869  4.5152849   4.51528877  4.54781412
  4.54785249  4.54790152  4.78911909  4.78918091  4.78922697  9.24296494
  9.24299481  9.24302     9.24953979  9.24954328  9.25162913  9.25163021
  9.25164738  9.25459218  9.81814674  9.81815156  9.81815266  9.82462471
  9.82465897  9.82469263  9.83247283]
E1 = -218.5323678678575  Ecoul = 95.9601629020574
cycle= 25 E= -122.5722049658  delta_E= -8.01e-07  |g|= 0.000177  |ddm|= 0.00436
    CPU time for cycle= 25     24.06 sec, wall time      0.19 sec
  HOMO = 0.0105798932269001  LUMO = 0.05781268538986
                  Roothaan           | alpha              | beta
  Highest 2-occ = -0.362997634496312 | -0.407368672476947 | -0.318628868153503
  Lowest 0-occ =    0.05781268538986 | 0.0424069872204539 | 0.0732141212565871
  1-occ =         -0.0916163380132917 | -0.234553468009442 | 0.0513163050260348
  1-occ =         0.0105387707572295 | -0.453626684202009 |  0.474649929564769
  1-occ =         0.0105627162640821 | -0.453616313398211 |  0.474705978813054
  1-occ =         0.0105798932269001 |  -0.45354175566389 |  0.474763641633899
  Roothaan mo_energy =
[-4.06792654 -2.57147352 -2.57147164 -2.57146494 -0.3630037  -0.36299763
 -0.09161634  0.01053877  0.01056272  0.01057989  0.05781269  0.0578133
  0.05781584  0.17803737  0.25362106  0.25362403  0.25362936  0.27561057
  0.2756132   0.28058571  0.28058637  0.280591    0.80706402  1.12982948
  1.1298366   1.12985072  1.14721978  1.14722471  1.17154457  1.17156419
  1.17156562  2.68459509  2.68459684  2.68460243  2.6924251   2.69243006
  2.69243477  2.70200003  3.15815409  4.51530397  4.51530528  4.54785897
  4.54787454  4.54789086  4.78917439  4.78919216  4.78921477  9.24300469
  9.24301432  9.24302565  9.24956221  9.24956345  9.25165227  9.25165861
  9.25165923  9.25461349  9.81817298  9.8181745   9.81817453  9.82466944
  9.82468246  9.82469569  9.83249691]
E1 = -218.5321819358861  Ecoul = 95.95997686428814
cycle= 26 E= -122.572205071598  delta_E= -1.06e-07  |g|= 7.54e-05  |ddm|= 0.00158
    CPU time for cycle= 26     22.00 sec, wall time      0.17 sec
  HOMO = 0.0105687794117246  LUMO = 0.0578132244881378
                  Roothaan           | alpha              | beta
  Highest 2-occ = -0.363001769117738 | -0.407381719836188 | -0.318643221974465
  Lowest 0-occ =  0.0578132244881378 | 0.0424105865487127 | 0.0732142252751784
  1-occ =         -0.0916171862183163 | -0.234552929224657 | 0.0513129912351068
  1-occ =          0.010543731322704 | -0.453624831529492 |  0.474678408289691
  1-occ =         0.0105593772028275 | -0.453602913221926 |  0.474695816708384
  1-occ =         0.0105687794117246 |  -0.45359080312907 |  0.474713971999084
  Roothaan mo_energy =
[-4.06792949 -2.57147493 -2.5714746  -2.57146943 -0.3630064  -0.36300177
 -0.09161719  0.01054373  0.01055938  0.01056878  0.05781322  0.05781333
  0.0578154   0.17803662  0.2536223   0.25362343  0.25362728  0.27561008
  0.27561329  0.28058679  0.28058964  0.28059046  0.80706425  1.12983279
  1.12983485  1.12984586  1.14721783  1.1472234   1.171548    1.17156122
  1.17156126  2.68459215  2.68459593  2.68459941  2.6924246   2.69242769
  2.69243067  2.70199765  3.15815223  4.51530088  4.51530212  4.54786283
  4.54787281  4.54788238  4.78918003  4.7891892   4.78920476  9.2430057
  9.24301104  9.24301849  9.24955896  9.24956041  9.25165021  9.25165448
  9.25165598  9.25461037  9.8181698   9.81817089  9.81817134  9.82467151
  9.82467929  9.82468717  9.83249385]
E1 = -218.5322917310147  Ecoul = 95.96008667358778
cycle= 27 E= -122.572205057427  delta_E= 1.42e-08  |g|= 0.000105  |ddm|= 0.000931
    CPU time for cycle= 27     19.46 sec, wall time      0.15 sec
  HOMO = 0.0105603301328561  LUMO = 0.0578131865445014
                  Roothaan           | alpha              | beta
  Highest 2-occ = -0.363005252649089 |  -0.40737561204313 | -0.318636928100457
  Lowest 0-occ =  0.0578131865445014 | 0.0424104288018507 | 0.0732145978862515
  1-occ =         -0.0916180464752572 | -0.234551430195104 | 0.0513136994138919
  1-occ =         0.0105477516308284 | -0.453611182061951 |  0.474691659009346
  1-occ =         0.0105558992253902 | -0.453599612643337 |   0.47470743852204
  1-occ =         0.0105603301328561 | -0.453590494509428 |  0.474714084711743
  Roothaan mo_energy =
[-4.06793144 -2.5714771  -2.57147522 -2.57147269 -0.36300764 -0.36300525
 -0.09161805  0.01054775  0.0105559   0.01056033  0.05781319  0.05781379
  0.05781498  0.1780364   0.25362294  0.25362317  0.25362559  0.2756097
  0.27561321  0.28058734  0.28058983  0.28059269  0.80706454  1.12983356
  1.12983526  1.12984202  1.14721635  1.1472221   1.17155096  1.17155797
  1.17155859  2.68459     2.68459493  2.68459702  2.69242425  2.6924257
  2.69242729  2.70199568  3.15815093  4.51529869  4.51529975  4.54786615
  4.54787186  4.54787609  4.78918458  4.78918718  4.78919713  9.24300657
  9.2430086   9.24301299  9.24955655  9.24955812  9.25164872  9.25165096
  9.25165393  9.25460804  9.81816763  9.81816834  9.81816909  9.82467336
  9.82467711  9.82468092  9.83249181]
E1 = -218.53237515904118  Ecoul = 95.96017007255685
cycle= 28 E= -122.572205086484  delta_E= -2.91e-08  |g|= 3.84e-05  |ddm|= 0.000726
    CPU time for cycle= 28     37.21 sec, wall time      0.29 sec
  HOMO = 0.0105564817678668  LUMO = 0.0578130656192602
                  Roothaan           | alpha              | beta
  Highest 2-occ = -0.363005483643661 | -0.407371137612524 | -0.318632378720316
  Lowest 0-occ =  0.0578130656192602 | 0.0424102920376537 | 0.0732148678818579
  1-occ =         -0.0916185874734126 | -0.234550226397824 | 0.0513140272731333
  1-occ =         0.0105508475620101 | -0.453600257327181 |   0.47470205701283
  1-occ =         0.0105549839848434 | -0.453597383371816 |  0.474711923400562
  1-occ =         0.0105564817678668 | -0.453590010614841 |  0.474713569663399
  Roothaan mo_energy =
[-4.0679315  -2.57147735 -2.5714747  -2.57147358 -0.36300649 -0.36300548
 -0.09161859  0.01055085  0.01055498  0.01055648  0.05781307  0.05781405
  0.05781448  0.17803683  0.25362282  0.25362374  0.25362485  0.27560958
  0.27561302  0.28058751  0.28058853  0.28059103  0.8070648   1.12983333
  1.12983698  1.12984     1.14721619  1.14722187  1.17155285  1.17155594
  1.17155796  2.68458961  2.68459491  2.68459639  2.6924249   2.69242534
  2.69242583  2.70199524  3.15815083  4.51529839  4.51529953  4.54786856
  4.54787153  4.54787298  4.78918674  4.78918801  4.78919348  9.24300821
  9.24300833  9.24301099  9.24955623  9.24955794  9.25164884  9.2516501
  9.25165389  9.25460776  9.81816759  9.81816795  9.81816873  9.82467515
  9.82467684  9.82467851  9.83249148]
E1 = -218.53232796270436  Ecoul = 95.96012287285177
cycle= 29 E= -122.572205089853  delta_E= -3.37e-09  |g|= 1.37e-05  |ddm|= 0.000349
    CPU time for cycle= 29     33.21 sec, wall time      0.26 sec
  HOMO = 0.0105540328792197  LUMO = 0.0578131954200482
                  Roothaan           | alpha              | beta
  Highest 2-occ = -0.363005677253839 | -0.407374105402817 | -0.318635304699237
  Lowest 0-occ =  0.0578131954200482 | 0.0424099429320801 | 0.0732147417719107
  1-occ =         -0.0916187738952359 | -0.234550767929661 | 0.0513134029834034
  1-occ =         0.0105511376188784 | -0.453600075806768 |  0.474702861502025
  1-occ =         0.0105539849091211 | -0.453599235943503 |  0.474708128366659
  1-occ =         0.0105540328792197 | -0.453595394776646 |  0.474708214965712
  Roothaan mo_energy =
[-4.06793263 -2.57147807 -2.57147575 -2.57147497 -0.36300615 -0.36300568
 -0.09161877  0.01055114  0.01055398  0.01055403  0.0578132   0.05781405
  0.05781436  0.17803658  0.25362284  0.25362373  0.25362437  0.27560995
  0.2756128   0.28058833  0.28058886  0.28058955  0.80706461  1.12983344
  1.12983694  1.12983873  1.14721642  1.14722118  1.17155328  1.17155494
  1.17155614  2.6845895   2.68459407  2.68459521  2.69242438  2.69242461
  2.69242492  2.70199451  3.15815015  4.51529766  4.5152988   4.54786882
  4.54787015  4.54787107  4.78918613  4.78918831  4.78919122  9.24300734
  9.24300774  9.2430092   9.24955519  9.24955674  9.25164803  9.25164894
  9.25165246  9.25460661  9.81816666  9.81816684  9.81816742  9.82467471
  9.82467573  9.82467651  9.83249021]
E1 = -218.5323296344089  Ecoul = 95.96012454381574
cycle= 30 E= -122.572205090593  delta_E= -7.41e-10  |g|= 1.19e-05  |ddm|= 0.00012
    CPU time for cycle= 30     51.66 sec, wall time      0.40 sec
  HOMO = 0.0105550095318016  LUMO = 0.0578132728799033
                  Roothaan           | alpha              | beta
  Highest 2-occ = -0.363004890703638 | -0.407373929865614 | -0.318634879371366
  Lowest 0-occ =  0.0578132728799033 | 0.0424103914094933 | 0.0732147884442523
  1-occ =         -0.0916187096836823 | -0.234550807357135 | 0.0513133223474978
  1-occ =         0.0105523920926281 | -0.453599629645533 |  0.474703795077398
  1-occ =         0.0105546050194951 | -0.453598981507937 |  0.474708313639353
  1-occ =         0.0105550095318016 | -0.453597027207262 |  0.474706594981732
  Roothaan mo_energy =
[-4.06793147 -2.57147671 -2.57147477 -2.57147406 -0.36300516 -0.36300489
 -0.09161871  0.01055239  0.01055461  0.01055501  0.05781327  0.057814
  0.05781429  0.1780367   0.25362302  0.25362378  0.25362435  0.27561014
  0.27561263  0.28058792  0.28058844  0.28059006  0.80706473  1.12983411
  1.12983709  1.12983869  1.14721707  1.14722116  1.1715537   1.17155513
  1.17155623  2.68459044  2.68459434  2.68459533  2.69242482  2.69242504
  2.69242539  2.70199496  3.1581508   4.51529881  4.5152997   4.5478699
  4.54787112  4.54787192  4.78918741  4.78918911  4.78919178  9.24300833
  9.2430086   9.24300995  9.24955619  9.24955747  9.25164917  9.25164998
  9.25165288  9.25460748  9.81816789  9.81816803  9.81816861  9.82467599
  9.82467689  9.82467766  9.8324914 ]
E1 = -218.5323042587884  Ecoul = 95.96009917047762
Extra cycle  E= -122.572205088311  delta_E= 2.28e-09  |g|= 3.3e-05  |ddm|= 0.000231
    CPU time for scf_cycle   1041.05 sec, wall time     11.70 sec
    CPU time for SCF   1041.05 sec, wall time     11.71 sec
converged SCF energy = -122.572205088311
