#INFO: **** input file is /home/nkousuke/lustre/toBeSync/turboRVB/05turbo-genius-development/turbogenius_paper/04data/sanity_checks/03pyscf_HF_turbo_VMC_via_trexio/00open_boundary/results/S/pyscf-HF-workflow/run.py ****

from pyscf_wrapper import Pyscf_wrapper

# input variables
pyscf_chkfile="pyscf.chk"
structure_file="S.xyz"

# input variables
omp_num_threads=128
charge=0
spin=2
basis="ccecp-ccpvqz"
ecp="ccecp"
scf_method="HF"
dft_xc="NA"
solver_newton=False
MP2_flag=False
CCSD_flag=False
pyscf_output="out.pyscf"
twist_average=False
exp_to_discard=0.0
kpt=[0.0, 0.0, 0.0]
kpt_grid=[1, 1, 1]
smearing_method="fermi"
smearing_sigma=0.0

pyscf_calc=Pyscf_wrapper(
                        structure_file=structure_file,
                        chkfile=pyscf_chkfile,
                        )

pyscf_calc.run_pyscf(
                  omp_num_threads=omp_num_threads,
                  charge=charge,
                  spin=spin,
                  basis=basis,
                  ecp=ecp,
                  scf_method=scf_method,
                  dft_xc=dft_xc,
                  solver_newton=solver_newton,
                  MP2_flag=MP2_flag,
                  CCSD_flag=CCSD_flag,
                  pyscf_output=pyscf_output,
                  twist_average=twist_average,
                  exp_to_discard=exp_to_discard,
                  kpt=kpt,
                  kpt_grid=kpt_grid,
                  smearing_method=smearing_method,
                  smearing_sigma=smearing_sigma
                  )
                #INFO: ******************** input file end ********************


System: uname_result(system='Linux', node='spcc-238', release='5.4.0-66-generic', version='#74-Ubuntu SMP Wed Jan 27 22:54:38 UTC 2021', machine='x86_64', processor='x86_64')  Threads 128
Python 3.7.3 (default, Mar 27 2019, 22:11:17) 
[GCC 7.3.0]
numpy 1.20.1  scipy 1.7.3
Date: Mon Dec 19 18:11:06 2022
PySCF version 2.0.1
PySCF path  /home/nkousuke/application/anaconda3/lib/python3.7/site-packages/pyscf

[CONFIG] conf_file /home/nkousuke/.pyscf_conf.py
[INPUT] verbose = 5
[INPUT] max_memory = 506317.453125 
[INPUT] num. atoms = 1
[INPUT] num. electrons = 6
[INPUT] charge = 0
[INPUT] spin (= nelec alpha-beta = 2S) = 2
[INPUT] symmetry False subgroup None
[INPUT] Mole.unit = A
[INPUT]  1 S      0.000000000000   0.000000000000   0.000000000000 AA    0.000000000000   0.000000000000   0.000000000000 Bohr
[INPUT] ---------------- BASIS SET ---------------- 
[INPUT] l, kappa, [nprim/nctr], expnt,             c_1 c_2 ...
[INPUT] S
[INPUT] 0    0    [10   /1   ]  14.05257          0.002102
                                7.864913          -0.011042
                                4.401818          0.086618
                                2.4636            -0.271004
                                1.378823          -0.151274
                                0.771696          0.136044
                                0.431901          0.39436
                                0.241726          0.432098
                                0.135289          0.230974
                                0.075718          0.051205
[INPUT] 0    0    [1    /1   ]  0.818729             1
[INPUT] 0    0    [1    /1   ]  0.332501             1
[INPUT] 0    0    [1    /1   ]  0.135035             1
[INPUT] 1    0    [10   /1   ]  6.808844          -0.003573
                                3.94156           0.001903
                                2.281723          -0.065016
                                1.320863          0.042305
                                0.764632          0.158772
                                0.442637          0.278172
                                0.256237          0.293821
                                0.148333          0.248015
                                0.085868          0.114905
                                0.049708          0.032934
[INPUT] 1    0    [1    /1   ]  2.088209             1
[INPUT] 1    0    [1    /1   ]  0.838124             1
[INPUT] 1    0    [1    /1   ]  0.33639              1
[INPUT] 2    0    [1    /1   ]  1.68189              1
[INPUT] 2    0    [1    /1   ]  0.613672             1
[INPUT] 2    0    [1    /1   ]  0.223911             1
[INPUT] 3    0    [1    /1   ]  0.898397             1
[INPUT] 3    0    [1    /1   ]  0.339271             1
[INPUT] 4    0    [1    /1   ]  0.691446             1

nuclear repulsion = 0
number of shells = 14
number of NR pGTOs = 90
number of NR cGTOs = 54
basis = ccecp-ccpvqz
ecp = ccecp
CPU time:         5.62


******** <class 'pyscf.scf.rohf.ROHF'> ********
method = ROHF-RHF
initial guess = minao
damping factor = 0
level_shift factor = 0
DIIS = <class 'pyscf.scf.diis.CDIIS'>
diis_start_cycle = 1
diis_space = 8
SCF conv_tol = 1e-09
SCF conv_tol_grad = None
SCF max_cycles = 200
direct_scf = True
direct_scf_tol = 1e-13
chkfile to save SCF result = pyscf.chk
max_memory 506317 MB (current use 106 MB)
num. doubly occ = 2  num. singly occ = 2
Set gradient conv threshold to 3.16228e-05
E1 = -16.320722304086175  Ecoul = 6.710242393312134
init E= -9.61047991077404
cond(S) = 791.9552120554479
    CPU time for initialize scf     81.90 sec, wall time      0.79 sec
  HOMO = -0.284571116921221  LUMO = 0.413607529997658
                  Roothaan           | alpha              | beta
  Highest 2-occ = -0.284571116921224 | -0.284571116921222 | -0.284571116921222
  Lowest 0-occ =   0.413607529997658 |  0.413607529997655 |  0.413607529997655
  1-occ =         -0.284571116921221 | -0.284571116921222 | -0.284571116921222
  1-occ =         -0.284571116921221 | -0.284571116921222 | -0.284571116921222
  Roothaan mo_energy =
[-0.88364776 -0.28457112 -0.28457112 -0.28457112  0.41360753  0.45575943
  0.45575943  0.45575943  0.45736917  0.45736917  0.45736917  0.45736917
  0.45736917  1.24451657  1.24451657  1.24451657  1.24451657  1.24451657
  1.24451657  1.24451657  1.43512108  1.43512108  1.43512108  1.43512108
  1.43512108  2.14276849  2.14276849  2.14276849  2.33271025  3.27836533
  3.27836533  3.27836533  3.27836533  3.27836533  3.27836533  3.27836533
  3.27836533  3.27836533  3.52523075  3.52523075  3.52523075  3.52523075
  3.52523075  3.52523075  3.52523075  4.19674578  4.19674578  4.19674578
  4.19674578  4.19674578  8.81398891  8.81398891  8.81398891 14.53038669]
E1 = -16.169486718901087  Ecoul = 6.2572313290072215
cycle= 1 E= -9.91225538989386  delta_E= -0.302  |g|= 0.107  |ddm|= 1.61
    CPU time for cycle= 1     18.93 sec, wall time      0.15 sec
  HOMO = -0.256684012251018  LUMO = 0.397401047677731
                  Roothaan           | alpha              | beta
  Highest 2-occ = -0.418639545883156 | -0.445217800909261 | -0.392061290857054
  Lowest 0-occ =   0.397401047677731 |  0.372264127648329 |  0.419931730032501
  1-occ =         -0.256684012251019 | -0.498011784843357 | -0.000879409733858911
  1-occ =         -0.256684012251018 | -0.498011784843357 | -0.000879409733858969
  Roothaan mo_energy =
[-0.91436154 -0.41863955 -0.25668401 -0.25668401  0.39740105  0.43411608
  0.43411608  0.43979965  0.43979965  0.44214026  0.44513237  0.44513237
  0.44968353  1.210545    1.210545    1.22759973  1.22759973  1.23808402
  1.23808402  1.24122319  1.38978455  1.38978455  1.4092717   1.4092717
  1.41602818  2.10042952  2.10042952  2.1271534   2.29735625  3.22033714
  3.22033714  3.24170536  3.24170536  3.25699932  3.25699932  3.26619041
  3.26619041  3.26925688  3.46240426  3.46240426  3.48640067  3.48640067
  3.50099447  3.50099447  3.50579622  4.13256387  4.13256387  4.15925097
  4.15925097  4.16845581  8.74980756  8.74980756  8.77613246 14.47094367]
E1 = -16.34431110693962  Ecoul = 6.424057031557814
cycle= 2 E= -9.92025407538181  delta_E= -0.008  |g|= 0.0281  |ddm|= 0.815
    CPU time for cycle= 2     32.12 sec, wall time      0.25 sec
  HOMO = -0.223880305120591  LUMO = 0.413083161431923
                  Roothaan           | alpha              | beta
  Highest 2-occ = -0.394792495463943 | -0.418679661748669 | -0.365519294692212
  Lowest 0-occ =   0.413083161431923 |  0.394525392144887 |  0.435177509471344
  1-occ =         -0.223880305120592 | -0.477015164377229 | 0.0357986138682256
  1-occ =         -0.223880305120591 | -0.477015164377228 | 0.0357986138682269
  Roothaan mo_energy =
[-0.88268039 -0.3947925  -0.22388031 -0.22388031  0.41308316  0.45066772
  0.45066772  0.4551132   0.4551132   0.45959477  0.45959477  0.46035274
  0.4613612   1.22933176  1.22933176  1.24499513  1.24499513  1.25435765
  1.25435765  1.25752514  1.42510327  1.42510327  1.44276922  1.44276922
  1.44885449  2.13657045  2.13657045  2.16059999  2.33413679  3.25322211
  3.25322211  3.27296186  3.27296186  3.28711028  3.28711028  3.29562413
  3.29562413  3.29846692  3.5051663   3.5051663   3.52739143  3.52739143
  3.54085025  3.54085025  3.54537589  4.18342185  4.18342185  4.2082992
  4.2082992   4.21687594  8.81001227  8.81001227  8.83455661 14.5350261 ]
E1 = -16.31818324356538  Ecoul = 6.397697321170037
cycle= 3 E= -9.92048592239534  delta_E= -0.000232  |g|= 0.00335  |ddm|= 0.0822
    CPU time for cycle= 3     20.97 sec, wall time      0.16 sec
  HOMO = -0.225128988025091  LUMO = 0.412942703747601
                  Roothaan           | alpha              | beta
  Highest 2-occ = -0.396300542438037 | -0.422769910853805 | -0.369844589062424
  Lowest 0-occ =   0.412942703747601 |  0.392399832082991 |  0.433298965211379
  1-occ =         -0.225128988025093 | -0.481199743855434 | 0.0311360634573314
  1-occ =         -0.225128988025091 | -0.481199743855433 | 0.0311360634573311
  Roothaan mo_energy =
[-0.88378748 -0.39630054 -0.22512899 -0.22512899  0.4129427   0.44993769
  0.44993769  0.45443695  0.45443695  0.45867113  0.45867113  0.45998338
  0.46034133  1.22900002  1.22900002  1.24446119  1.24446119  1.25364264
  1.25364264  1.2568385   1.42332539  1.42332539  1.44080298  1.44080298
  1.44677478  2.13472248  2.13472248  2.15847561  2.33235337  3.25232045
  3.25232045  3.27177341  3.27177341  3.28571961  3.28571961  3.29411435
  3.29411435  3.29691796  3.50324387  3.50324387  3.52512613  3.52512613
  3.53834511  3.53834511  3.54282533  4.18041555  4.18041555  4.20487925
  4.20487925  4.21331534  8.80582036  8.80582036  8.82994685 14.53022593]
E1 = -16.31947186143881  Ecoul = 6.3989782804973725
cycle= 4 E= -9.92049358094144  delta_E= -7.66e-06  |g|= 0.000582  |ddm|= 0.0172
    CPU time for cycle= 4     18.93 sec, wall time      0.15 sec
  HOMO = -0.224896508005755  LUMO = 0.413071031843159
                  Roothaan           | alpha              | beta
  Highest 2-occ = -0.396100323822202 | -0.422531256090229 | -0.369593863415131
  Lowest 0-occ =   0.413071031843159 |  0.392676767208115 |  0.433489772403131
  1-occ =         -0.224896508005756 | -0.481212129858159 | 0.0315314796724621
  1-occ =         -0.224896508005755 | -0.481212129858159 | 0.0315314796724615
  Roothaan mo_energy =
[-0.88351909 -0.39610032 -0.22489651 -0.22489651  0.41307103  0.44983971
  0.44983971  0.45453276  0.45453276  0.45880144  0.45880144  0.46012671
  0.4604984   1.22904977  1.22904977  1.24456351  1.24456351  1.25378185
  1.25378185  1.25698389  1.42347889  1.42347889  1.44103756  1.44103756
  1.44703121  2.13488224  2.13488224  2.15877028  2.33261046  3.25243216
  3.25243216  3.27194017  3.27194017  3.28592437  3.28592437  3.29434137
  3.29434137  3.29715231  3.50343841  3.50343841  3.52537911  3.52537911
  3.53863156  3.53863156  3.54312157  4.18069867  4.18069867  4.20521426
  4.20521426  4.21366753  8.8061929   8.8061929   8.83036811 14.53065506]
E1 = -16.319079257372316  Ecoul = 6.3985855168041885
cycle= 5 E= -9.92049374056813  delta_E= -1.6e-07  |g|= 4.06e-05  |ddm|= 0.00221
    CPU time for cycle= 5     40.45 sec, wall time      0.32 sec
  HOMO = -0.224924382745234  LUMO = 0.413056653832342
                  Roothaan           | alpha              | beta
  Highest 2-occ = -0.396114817916742 | -0.422582567637194 | -0.369642797745977
  Lowest 0-occ =   0.413056653832342 |  0.392654968438477 |  0.433464263555949
  1-occ =         -0.224924382745235 | -0.481301382425882 | 0.0314679146226794
  1-occ =         -0.224924382745234 | -0.481301382425882 | 0.0314679146226797
  Roothaan mo_energy =
[-0.88354488 -0.39611482 -0.22492438 -0.22492438  0.41305665  0.44983084
  0.44983084  0.45451497  0.45451497  0.45878247  0.45878247  0.46012289
  0.46047932  1.2290323   1.2290323   1.24454615  1.24454615  1.25376479
  1.25376479  1.2569666   1.42345272  1.42345272  1.44101128  1.44101128
  1.44700544  2.13485368  2.13485368  2.15874318  2.33258198  3.2524066
  3.2524066   3.2719131   3.2719131   3.28589605  3.28589605  3.29431219
  3.29431219  3.29712283  3.50340957  3.50340957  3.52534728  3.52534728
  3.53859796  3.53859796  3.54308719  4.18066809  4.18066809  4.20517915
  4.20517915  4.21363065  8.80615785  8.80615785  8.83032761 14.53061694]
E1 = -16.319085546566146  Ecoul = 6.398591804696336
cycle= 6 E= -9.92049374186981  delta_E= -1.3e-09  |g|= 8.12e-06  |ddm|= 0.000341
    CPU time for cycle= 6     18.93 sec, wall time      0.15 sec
  HOMO = -0.224917257406327  LUMO = 0.413059478402076
                  Roothaan           | alpha              | beta
  Highest 2-occ = -0.396108993302608 | -0.422578826760368 | -0.369638560802471
  Lowest 0-occ =   0.413059478402076 |   0.39265588523449 |  0.433463861653657
  1-occ =         -0.224917257406331 | -0.481303601473761 | 0.0314702993177106
  1-occ =         -0.224917257406327 | -0.481303601473759 | 0.0314702993177103
  Roothaan mo_energy =
[-0.88353963 -0.39610899 -0.22491726 -0.22491726  0.41305948  0.44982914
  0.44982914  0.45451894  0.45451894  0.45878614  0.45878614  0.46012556
  0.4604826   1.22903585  1.22903585  1.24454948  1.24454948  1.25376791
  1.25376791  1.25696975  1.42345823  1.42345823  1.44101676  1.44101676
  1.44701077  2.13485953  2.13485953  2.15874888  2.33258784  3.25241274
  3.25241274  3.27191874  3.27191874  3.28590137  3.28590137  3.29431734
  3.29431734  3.29712793  3.50341686  3.50341686  3.52535395  3.52535395
  3.53860423  3.53860423  3.54309339  4.18067604  4.18067604  4.2051863
  4.2051863   4.21363757  8.80616661  8.80616661  8.8303355  14.53062583]
E1 = -16.319076759660724  Ecoul = 6.3985830177637615
cycle= 7 E= -9.92049374189696  delta_E= -2.72e-11  |g|= 8.52e-07  |ddm|= 4.86e-05
    CPU time for cycle= 7     18.93 sec, wall time      0.15 sec
  HOMO = -0.224918304408939  LUMO = 0.413059047142386
                  Roothaan           | alpha              | beta
  Highest 2-occ = -0.396109704727319 | -0.422579836427303 | -0.369639573027331
  Lowest 0-occ =   0.413059047142386 |   0.39265503793984 |  0.433463056344923
  1-occ =          -0.22491830440894 |  -0.48130522663251 | 0.0314686909783719
  1-occ =         -0.224918304408939 |  -0.48130522663251 | 0.0314686909783709
  Roothaan mo_energy =
[-0.88354043 -0.3961097  -0.2249183  -0.2249183   0.41305905  0.44982934
  0.44982934  0.45451839  0.45451839  0.45878561  0.45878561  0.46012524
  0.46048208  1.22903536  1.22903536  1.244549    1.244549    1.25376745
  1.25376745  1.25696929  1.42345744  1.42345744  1.44101598  1.44101598
  1.44700998  2.13485867  2.13485867  2.15874807  2.332587    3.25241192
  3.25241192  3.27191794  3.27191794  3.28590059  3.28590059  3.29431658
  3.29431658  3.29712716  3.50341587  3.50341587  3.52535299  3.52535299
  3.53860329  3.53860329  3.54309245  4.18067493  4.18067493  4.20518522
  4.20518522  4.2136365   8.80616535  8.80616535  8.83033427 14.53062451]
E1 = -16.31907807452994  Ecoul = 6.398584332632648
Extra cycle  E= -9.92049374189729  delta_E= -3.3e-13  |g|= 1.56e-07  |ddm|= 4.89e-06
    CPU time for scf_cycle    273.17 sec, wall time      2.29 sec
    CPU time for SCF    273.17 sec, wall time      2.29 sec
converged SCF energy = -9.92049374189729
