#INFO: **** input file is /home/nkousuke/lustre/toBeSync/turboRVB/05turbo-genius-development/turbogenius_paper/04data/sanity_checks/03pyscf_HF_turbo_VMC_via_trexio/00open_boundary/results/Se/pyscf-HF-workflow/run.py ****

from pyscf_wrapper import Pyscf_wrapper

# input variables
pyscf_chkfile="pyscf.chk"
structure_file="Se.xyz"

# input variables
omp_num_threads=128
charge=0
spin=2
basis="ccecp-ccpvqz"
ecp="ccecp"
scf_method="HF"
dft_xc="NA"
solver_newton=False
MP2_flag=False
CCSD_flag=False
pyscf_output="out.pyscf"
twist_average=False
exp_to_discard=0.0
kpt=[0.0, 0.0, 0.0]
kpt_grid=[1, 1, 1]
smearing_method="fermi"
smearing_sigma=0.0

pyscf_calc=Pyscf_wrapper(
                        structure_file=structure_file,
                        chkfile=pyscf_chkfile,
                        )

pyscf_calc.run_pyscf(
                  omp_num_threads=omp_num_threads,
                  charge=charge,
                  spin=spin,
                  basis=basis,
                  ecp=ecp,
                  scf_method=scf_method,
                  dft_xc=dft_xc,
                  solver_newton=solver_newton,
                  MP2_flag=MP2_flag,
                  CCSD_flag=CCSD_flag,
                  pyscf_output=pyscf_output,
                  twist_average=twist_average,
                  exp_to_discard=exp_to_discard,
                  kpt=kpt,
                  kpt_grid=kpt_grid,
                  smearing_method=smearing_method,
                  smearing_sigma=smearing_sigma
                  )
                #INFO: ******************** input file end ********************


System: uname_result(system='Linux', node='spcc-200', release='5.4.0-66-generic', version='#74-Ubuntu SMP Wed Jan 27 22:54:38 UTC 2021', machine='x86_64', processor='x86_64')  Threads 128
Python 3.7.3 (default, Mar 27 2019, 22:11:17) 
[GCC 7.3.0]
numpy 1.20.1  scipy 1.7.3
Date: Mon Dec 19 18:12:17 2022
PySCF version 2.0.1
PySCF path  /home/nkousuke/application/anaconda3/lib/python3.7/site-packages/pyscf

[CONFIG] conf_file /home/nkousuke/.pyscf_conf.py
[INPUT] verbose = 5
[INPUT] max_memory = 507523.25 
[INPUT] num. atoms = 1
[INPUT] num. electrons = 6
[INPUT] charge = 0
[INPUT] spin (= nelec alpha-beta = 2S) = 2
[INPUT] symmetry False subgroup None
[INPUT] Mole.unit = A
[INPUT]  1 Se     0.000000000000   0.000000000000   0.000000000000 AA    0.000000000000   0.000000000000   0.000000000000 Bohr
[INPUT] ---------------- BASIS SET ---------------- 
[INPUT] l, kappa, [nprim/nctr], expnt,             c_1 c_2 ...
[INPUT] Se
[INPUT] 0    0    [9    /1   ]  53.235856         -0.000173
                                24.06948          0.001518
                                10.882513         -0.015384
                                4.920301          0.136816
                                2.224611          -0.39461
                                1.005811          -0.139559
                                0.454757          0.507331
                                0.205609          0.586875
                                0.092962          0.17717
[INPUT] 0    0    [1    /1   ]  0.635024             1
[INPUT] 0    0    [1    /1   ]  0.280784             1
[INPUT] 0    0    [1    /1   ]  0.124152             1
[INPUT] 1    0    [9    /1   ]  25.056177         -0.000153
                                11.673683         0.000332
                                5.438773          0.014175
                                2.533927          -0.103893
                                1.180557          -0.008134
                                0.550022          0.284904
                                0.256256          0.427437
                                0.11939           0.334066
                                0.055624          0.11234
[INPUT] 1    0    [1    /1   ]  0.6237               1
[INPUT] 1    0    [1    /1   ]  0.23166              1
[INPUT] 1    0    [1    /1   ]  0.086045             1
[INPUT] 2    0    [1    /1   ]  1.309673             1
[INPUT] 2    0    [1    /1   ]  0.519002             1
[INPUT] 2    0    [1    /1   ]  0.205672             1
[INPUT] 3    0    [1    /1   ]  0.72058              1
[INPUT] 3    0    [1    /1   ]  0.288011             1
[INPUT] 4    0    [1    /1   ]  0.591247             1

nuclear repulsion = 0
number of shells = 14
number of NR pGTOs = 86
number of NR cGTOs = 54
basis = ccecp-ccpvqz
ecp = ccecp
CPU time:         4.73


******** <class 'pyscf.scf.rohf.ROHF'> ********
method = ROHF-RHF
initial guess = minao
damping factor = 0
level_shift factor = 0
DIIS = <class 'pyscf.scf.diis.CDIIS'>
diis_start_cycle = 1
diis_space = 8
SCF conv_tol = 1e-09
SCF conv_tol_grad = None
SCF max_cycles = 200
direct_scf = True
direct_scf_tol = 1e-13
chkfile to save SCF result = pyscf.chk
max_memory 507523 MB (current use 106 MB)
num. doubly occ = 2  num. singly occ = 2
Set gradient conv threshold to 3.16228e-05
E1 = -14.900794502162979  Ecoul = 6.02770512552394
init E= -8.87308937663904
cond(S) = 810.2430900600274
    CPU time for initialize scf     98.39 sec, wall time      0.96 sec
  HOMO = -0.277165394785797  LUMO = 0.315239707376473
                  Roothaan           | alpha              | beta
  Highest 2-occ = -0.277165394785798 | -0.277165394785797 | -0.277165394785797
  Lowest 0-occ =   0.315239707376473 |  0.315239707376474 |  0.315239707376474
  1-occ =         -0.277165394785797 | -0.277165394785797 | -0.277165394785797
  1-occ =         -0.277165394785797 | -0.277165394785797 | -0.277165394785797
  Roothaan mo_energy =
[-0.86885672 -0.27716539 -0.27716539 -0.27716539  0.31523971  0.31523971
  0.31523971  0.35068266  0.43541889  0.43541889  0.43541889  0.43541889
  0.43541889  1.02587304  1.02587304  1.02587304  1.02587304  1.02587304
  1.02587304  1.02587304  1.56281165  1.56281165  1.56281165  1.56281165
  1.56281165  1.58201576  1.58201576  1.58201576  2.02887911  2.74272629
  2.74272629  2.74272629  2.74272629  2.74272629  2.74272629  2.74272629
  2.74272629  2.74272629  2.80950764  2.80950764  2.80950764  2.80950764
  2.80950764  2.80950764  2.80950764  5.18700666  5.18700666  5.18700666
  5.18700666  5.18700666 13.76140328 13.76140328 13.76140328 22.03332339]
E1 = -14.842691503437653  Ecoul = 5.699785210719208
cycle= 1 E= -9.14290629271845  delta_E= -0.27  |g|= 0.0871  |ddm|= 1.11
    CPU time for cycle= 1     17.84 sec, wall time      0.14 sec
  HOMO = -0.239788408210265  LUMO = 0.311859236992119
                  Roothaan           | alpha              | beta
  Highest 2-occ = -0.384595757386644 | -0.409439413774998 |  -0.35975210099829
  Lowest 0-occ =   0.311859236992119 |  0.287458561410429 |  0.322784896385325
  1-occ =         -0.239788408210266 | -0.458701881857846 | -0.00792500419806672
  1-occ =         -0.239788408210265 | -0.458701881857848 | -0.00792500419806713
  Roothaan mo_energy =
[-0.88099189 -0.38459576 -0.23978841 -0.23978841  0.31185924  0.31185924
  0.31715697  0.34374084  0.42385247  0.42385247  0.4305191   0.4305191
  0.43307118  1.00295225  1.00295225  1.01894611  1.01894611  1.02877941
  1.02877941  1.03167782  1.53834223  1.53834223  1.55742244  1.55742244
  1.56256168  1.56256168  1.56398947  1.5866989   2.01594595  2.70424044
  2.70424044  2.72420825  2.72420825  2.73862256  2.73862256  2.74733244
  2.74733244  2.75024603  2.77301018  2.77301018  2.79499907  2.79499907
  2.80844076  2.80844076  2.81287034  5.1526397   5.1526397   5.1761387
  5.1761387   5.18412513 13.73405651 13.73405651 13.75433637 22.0114591 ]
E1 = -14.982367101298479  Ecoul = 5.832599688417053
cycle= 2 E= -9.14976741288143  delta_E= -0.00686  |g|= 0.0221  |ddm|= 0.314
    CPU time for cycle= 2     37.37 sec, wall time      0.29 sec
  HOMO = -0.211228455273351  LUMO = 0.314016067731643
                  Roothaan           | alpha              | beta
  Highest 2-occ = -0.364474700696396 | -0.388475847702262 | -0.338984077637698
  Lowest 0-occ =   0.314016067731643 |  0.294770745311203 |  0.329675926506957
  1-occ =         -0.211228455273351 | -0.442875206489245 | 0.0220159058432463
  1-occ =         -0.211228455273351 | -0.442875206489246 | 0.0220159058432466
  Roothaan mo_energy =
[-0.85308735 -0.3644747  -0.21122846 -0.21122846  0.31401607  0.31401607
  0.32405026  0.35824115  0.44146437  0.44146437  0.44661576  0.44661576
  0.44847123  1.02085164  1.02085164  1.03520112  1.03520112  1.04373389
  1.04373389  1.04665205  1.56742201  1.56742201  1.58430437  1.58430437
  1.59006685  1.59058069  1.59058069  1.61193475  2.04588131  2.7348804
  2.7348804   2.75288459  2.75288459  2.7658946   2.7658946   2.77376552
  2.77376552  2.77640079  2.80974795  2.80974795  2.82958466  2.82958466
  2.84164828  2.84164828  2.84572535  5.19907681  5.19907681  5.22037243
  5.22037243  5.22762423 13.78435702 13.78435702 13.80281325 22.06419648]
E1 = -14.9635924578773  Ecoul = 5.813669055262569
cycle= 3 E= -9.14992340261473  delta_E= -0.000156  |g|= 0.00249  |ddm|= 0.0555
    CPU time for cycle= 3     19.46 sec, wall time      0.15 sec
  HOMO = -0.213517415601072  LUMO = 0.313480699285145
                  Roothaan           | alpha              | beta
  Highest 2-occ = -0.366678826713875 | -0.391394313548775 | -0.342131530693907
  Lowest 0-occ =   0.313480699285145 |  0.293920581227916 |  0.328845414393266
  1-occ =         -0.213517415601073 | -0.445884306973312 | 0.0188224316093517
  1-occ =         -0.213517415601072 | -0.445884306973312 |  0.018822431609352
  Roothaan mo_energy =
[-0.85530606 -0.36667883 -0.21351742 -0.21351742  0.3134807   0.3134807
  0.32353076  0.35748151  0.44025305  0.44025305  0.44521577  0.44521577
  0.4470003   1.01978774  1.01978774  1.03400186  1.03400186  1.04240901
  1.04240901  1.04535206  1.56485499  1.56485499  1.58163066  1.58163066
  1.58730421  1.58802347  1.58802347  1.60928534  2.04314017  2.73272517
  2.73272517  2.75052467  2.75052467  2.76339078  2.76339078  2.77117753
  2.77117753  2.7737853   2.80654135  2.80654135  2.82613761  2.82613761
  2.83802913  2.83802913  2.84207625  5.19419273  5.19419273  5.21517302
  5.21517302  5.2223227  13.77846874 13.77846874 13.79662604 22.05777524]
E1 = -14.965326987271691  Ecoul = 5.815398161176335
cycle= 4 E= -9.14992882609536  delta_E= -5.42e-06  |g|= 0.000455  |ddm|= 0.00993
    CPU time for cycle= 4     20.95 sec, wall time      0.16 sec
  HOMO = -0.213307159608689  LUMO = 0.313416768505328
                  Roothaan           | alpha              | beta
  Highest 2-occ = -0.366499992478364 | -0.391101722216937 |  -0.34182265846529
  Lowest 0-occ =   0.313416768505328 |  0.293963925406879 |  0.328996199471004
  1-occ =         -0.213307159608691 | -0.445780702605411 | 0.0192691960174696
  1-occ =         -0.213307159608689 | -0.445780702605411 | 0.0192691960174691
  Roothaan mo_energy =
[-0.85506256 -0.36649999 -0.21330716 -0.21330716  0.31341677  0.31341677
  0.32363195  0.35760833  0.44034874  0.44034874  0.44533826  0.44533826
  0.44714297  1.01985876  1.01985876  1.03411379  1.03411379  1.04255023
  1.04255023  1.04549732  1.5649998   1.5649998   1.58184281  1.58184281
  1.58753342  1.58816234  1.58816234  1.60953959  2.04336845  2.7328648
  2.7328648   2.75070652  2.75070652  2.76360247  2.76360247  2.77140697
  2.77140697  2.77402063  2.80673893  2.80673893  2.82638     2.82638
  2.83829746  2.83829746  2.84235218  5.19448637  5.19448637  5.2155011
  5.2155011   5.22266183 13.77881102 13.77881102 13.79699237 22.05814926]
E1 = -14.965032116087745  Ecoul = 5.815103189788076
cycle= 5 E= -9.14992892629967  delta_E= -1e-07  |g|= 3.2e-05  |ddm|= 0.00148
    CPU time for cycle= 5     20.99 sec, wall time      0.16 sec
  HOMO = -0.213317220158801  LUMO = 0.313411773261755
                  Roothaan           | alpha              | beta
  Highest 2-occ =  -0.36650342928244 | -0.391141917058835 | -0.341861370108199
  Lowest 0-occ =   0.313411773261755 |  0.293943144379873 |  0.328993474451647
  1-occ =         -0.213317220158802 | -0.445844118633099 | 0.0192203569279109
  1-occ =         -0.213317220158801 | -0.445844118633099 | 0.0192203569279107
  Roothaan mo_energy =
[-0.85507004 -0.36650343 -0.21331722 -0.21331722  0.31341177  0.31341177
  0.32363342  0.35760319  0.44034197  0.44034197  0.44533056  0.44533056
  0.44713554  1.01985104  1.01985104  1.03410624  1.03410624  1.04254312
  1.04254312  1.04548994  1.56499053  1.56499053  1.58183398  1.58183398
  1.58752514  1.58815159  1.58815159  1.6095317   2.04335993  2.73285564
  2.73285564  2.75069621  2.75069621  2.76359116  2.76359116  2.77139495
  2.77139495  2.77400835  2.80673059  2.80673059  2.82636957  2.82636957
  2.83828573  2.83828573  2.84233984  5.19447929  5.19447929  5.2154901
  5.2154901   5.22264929 13.77880393 13.77880393 13.79698101 22.05814074]
E1 = -14.965024010183967  Ecoul = 5.815095082926602
cycle= 6 E= -9.14992892725737  delta_E= -9.58e-10  |g|= 4.92e-06  |ddm|= 0.000153
    CPU time for cycle= 6     25.06 sec, wall time      0.20 sec
  HOMO = -0.213314128153853  LUMO = 0.313410684390183
                  Roothaan           | alpha              | beta
  Highest 2-occ = -0.366500811773768 | -0.391141308308535 | -0.341860315239002
  Lowest 0-occ =   0.313410684390183 |  0.293941602332312 |  0.328994554309601
  1-occ =         -0.213314128153853 | -0.445848058700385 | 0.0192197084258006
  1-occ =         -0.213314128153853 | -0.445848058700384 | 0.0192197084258007
  Roothaan mo_energy =
[-0.85506805 -0.36650081 -0.21331413 -0.21331413  0.31341068  0.31341068
  0.32363431  0.3576043   0.44034362  0.44034362  0.44533198  0.44533198
  0.4471367   1.01985267  1.01985267  1.03410766  1.03410766  1.04254433
  1.04254433  1.04549117  1.56499276  1.56499276  1.58183609  1.58183609
  1.58752714  1.58815386  1.58815386  1.60953371  2.0433621   2.73285844
  2.73285844  2.75069862  2.75069862  2.76359332  2.76359332  2.77139696
  2.77139696  2.77401032  2.80673368  2.80673368  2.82637223  2.82637223
  2.83828813  2.83828813  2.84234218  5.19448286  5.19448286  5.21549316
  5.21549316  5.22265221 13.77880753 13.77880753 13.79698417 22.05814437]
E1 = -14.965019390964073  Ecoul = 5.815090463690439
Extra cycle  E= -9.14992892727363  delta_E= -1.63e-11  |g|= 1.35e-06  |ddm|= 1.53e-05
    CPU time for scf_cycle    265.61 sec, wall time      2.27 sec
    CPU time for SCF    265.61 sec, wall time      2.27 sec
converged SCF energy = -9.14992892727363
