#INFO: **** input file is /home/nkousuke/lustre/toBeSync/turboRVB/05turbo-genius-development/turbogenius_paper/04data/sanity_checks/03pyscf_HF_turbo_VMC_via_trexio/00open_boundary/results/SO/pyscf-HF-workflow/run.py ****

from pyscf_wrapper import Pyscf_wrapper

# input variables
pyscf_chkfile="pyscf.chk"
structure_file="SO.xyz"

# input variables
omp_num_threads=128
charge=0
spin=2
basis="ccecp-ccpvqz"
ecp="ccecp"
scf_method="HF"
dft_xc="NA"
solver_newton=False
MP2_flag=False
CCSD_flag=False
pyscf_output="out.pyscf"
twist_average=False
exp_to_discard=0.0
kpt=[0.0, 0.0, 0.0]
kpt_grid=[1, 1, 1]
smearing_method="fermi"
smearing_sigma=0.0

pyscf_calc=Pyscf_wrapper(
                        structure_file=structure_file,
                        chkfile=pyscf_chkfile,
                        )

pyscf_calc.run_pyscf(
                  omp_num_threads=omp_num_threads,
                  charge=charge,
                  spin=spin,
                  basis=basis,
                  ecp=ecp,
                  scf_method=scf_method,
                  dft_xc=dft_xc,
                  solver_newton=solver_newton,
                  MP2_flag=MP2_flag,
                  CCSD_flag=CCSD_flag,
                  pyscf_output=pyscf_output,
                  twist_average=twist_average,
                  exp_to_discard=exp_to_discard,
                  kpt=kpt,
                  kpt_grid=kpt_grid,
                  smearing_method=smearing_method,
                  smearing_sigma=smearing_sigma
                  )
                #INFO: ******************** input file end ********************


System: uname_result(system='Linux', node='spcc-145', release='5.4.0-66-generic', version='#74-Ubuntu SMP Wed Jan 27 22:54:38 UTC 2021', machine='x86_64', processor='x86_64')  Threads 128
Python 3.7.3 (default, Mar 27 2019, 22:11:17) 
[GCC 7.3.0]
numpy 1.20.1  scipy 1.7.3
Date: Mon Dec 19 18:04:40 2022
PySCF version 2.0.1
PySCF path  /home/nkousuke/application/anaconda3/lib/python3.7/site-packages/pyscf

[CONFIG] conf_file /home/nkousuke/.pyscf_conf.py
[INPUT] verbose = 5
[INPUT] max_memory = 506574.83203125 
[INPUT] num. atoms = 2
[INPUT] num. electrons = 12
[INPUT] charge = 0
[INPUT] spin (= nelec alpha-beta = 2S) = 2
[INPUT] symmetry False subgroup None
[INPUT] Mole.unit = A
[INPUT]  1 O      0.000000000000   0.000000000000  -0.987600000000 AA    0.000000000000   0.000000000000  -1.866293520620 Bohr
[INPUT]  2 S      0.000000000000   0.000000000000   0.493800000000 AA    0.000000000000   0.000000000000   0.933146760310 Bohr
[INPUT] ---------------- BASIS SET ---------------- 
[INPUT] l, kappa, [nprim/nctr], expnt,             c_1 c_2 ...
[INPUT] O
[INPUT] 0    0    [9    /1   ]  54.775216         -0.0012444
                                25.616801         0.010733
                                11.980245         0.0018889
                                6.992317          -0.1742537
                                2.620277          0.0017622
                                1.225429          0.3161846
                                0.577797          0.4512023
                                0.268022          0.3121534
                                0.125346          0.0511167
[INPUT] 0    0    [1    /1   ]  1.351771             1
[INPUT] 0    0    [1    /1   ]  0.843157             1
[INPUT] 0    0    [1    /1   ]  0.22438              1
[INPUT] 1    0    [9    /1   ]  22.217266         0.0104866
                                10.74755          0.0366435
                                5.315785          0.0803674
                                2.660761          0.162701
                                1.331816          0.2377791
                                0.678626          0.2811422
                                0.333673          0.2643189
                                0.167017          0.1466014
                                0.083598          0.0458145
[INPUT] 1    0    [1    /1   ]  1.106737             1
[INPUT] 1    0    [1    /1   ]  0.452364             1
[INPUT] 1    0    [1    /1   ]  0.148562             1
[INPUT] 2    0    [1    /1   ]  4.008867             1
[INPUT] 2    0    [1    /1   ]  1.344331             1
[INPUT] 2    0    [1    /1   ]  0.455711             1
[INPUT] 3    0    [1    /1   ]  2.763115             1
[INPUT] 3    0    [1    /1   ]  0.876289             1
[INPUT] 4    0    [1    /1   ]  1.759081             1
[INPUT] S
[INPUT] 0    0    [10   /1   ]  14.05257          0.002102
                                7.864913          -0.011042
                                4.401818          0.086618
                                2.4636            -0.271004
                                1.378823          -0.151274
                                0.771696          0.136044
                                0.431901          0.39436
                                0.241726          0.432098
                                0.135289          0.230974
                                0.075718          0.051205
[INPUT] 0    0    [1    /1   ]  0.818729             1
[INPUT] 0    0    [1    /1   ]  0.332501             1
[INPUT] 0    0    [1    /1   ]  0.135035             1
[INPUT] 1    0    [10   /1   ]  6.808844          -0.003573
                                3.94156           0.001903
                                2.281723          -0.065016
                                1.320863          0.042305
                                0.764632          0.158772
                                0.442637          0.278172
                                0.256237          0.293821
                                0.148333          0.248015
                                0.085868          0.114905
                                0.049708          0.032934
[INPUT] 1    0    [1    /1   ]  2.088209             1
[INPUT] 1    0    [1    /1   ]  0.838124             1
[INPUT] 1    0    [1    /1   ]  0.33639              1
[INPUT] 2    0    [1    /1   ]  1.68189              1
[INPUT] 2    0    [1    /1   ]  0.613672             1
[INPUT] 2    0    [1    /1   ]  0.223911             1
[INPUT] 3    0    [1    /1   ]  0.898397             1
[INPUT] 3    0    [1    /1   ]  0.339271             1
[INPUT] 4    0    [1    /1   ]  0.691446             1

nuclear repulsion = 12.859713509599
number of shells = 28
number of NR pGTOs = 176
number of NR cGTOs = 108
basis = ccecp-ccpvqz
ecp = ccecp
CPU time:         3.90


******** <class 'pyscf.scf.rohf.ROHF'> ********
method = ROHF-RHF
initial guess = minao
damping factor = 0
level_shift factor = 0
DIIS = <class 'pyscf.scf.diis.CDIIS'>
diis_start_cycle = 1
diis_space = 8
SCF conv_tol = 1e-09
SCF conv_tol_grad = None
SCF max_cycles = 200
direct_scf = True
direct_scf_tol = 1e-13
chkfile to save SCF result = pyscf.chk
max_memory 506574 MB (current use 106 MB)
num. doubly occ = 5  num. singly occ = 2
Set gradient conv threshold to 3.16228e-05
E1 = -67.57168872494493  Ecoul = 29.199521717289436
init E= -25.5124534980565
cond(S) = 6293.912373326133
    CPU time for initialize scf    102.19 sec, wall time      0.95 sec
  HOMO = -0.198850374657264  LUMO = 0.0735370562667706
                  Roothaan           | alpha              | beta
  Highest 2-occ = -0.544058743901405 |   -0.5440587439014 |   -0.5440587439014
  Lowest 0-occ =  0.0735370562667706 | 0.0735370562667796 | 0.0735370562667796
  1-occ =         -0.198850374657264 | -0.198850374657266 | -0.198850374657266
  1-occ =         -0.198850374657264 | -0.198850374657266 | -0.198850374657266
  Roothaan mo_energy =
[-1.68245334 -0.88212375 -0.57921223 -0.57921223 -0.54405874 -0.19885037
 -0.19885037  0.07353706  0.31292068  0.41265204  0.42366246  0.42366246
  0.44070395  0.44070395  0.48032821  0.48032821  0.48759014  0.57224256
  0.57224256  0.82892022  1.0297922   1.09145644  1.09145644  1.23702334
  1.23702334  1.29696249  1.2999048   1.2999048   1.41657817  1.41657817
  1.49632824  1.49632824  1.53791717  1.53791717  1.57726529  1.75426836
  1.75426836  1.7989768   2.07837927  2.07837927  2.29497279  2.42355948
  2.42355948  2.50771406  2.95812405  3.07941481  3.07941481  3.10891176
  3.10891176  3.20991592  3.20991592  3.27174589  3.27174589  3.4608612
  3.50777165  3.50777165  3.5530994   3.5530994   3.61974152  3.61974152
  3.80330353  3.80330353  3.88689355  4.05633873  4.05633873  4.05956602
  4.05956602  4.23277952  4.23277952  4.29753072  4.37526273  4.37526273
  4.48544864  4.60334321  4.60334321  5.05033532  5.46890514  5.46890514
  6.65435783  7.23177337  7.23177337  8.21737731  8.77548131  8.77548131
  8.78435898  8.78435898  8.79998092  8.79998092  8.86910922  9.00953605
  9.00953605  9.46780925  9.46780925  9.98647567 11.67504422 11.67504422
 11.88602357 11.88602357 12.38818075 12.38818075 12.52086837 12.91976589
 12.91976589 13.15849247 13.15849247 13.60733224 14.98569888 32.64788553]
E1 = -68.41800309730198  Ecoul = 29.920821771231346
cycle= 1 E= -25.6374678164716  delta_E= -0.125  |g|= 0.463  |ddm|= 2.32
    CPU time for cycle= 1     83.75 sec, wall time      0.77 sec
  HOMO = -0.202550345145189  LUMO = 0.128219884988186
                  Roothaan           | alpha              | beta
  Highest 2-occ = -0.548422439764751 | -0.580321397207317 | -0.478164253489424
  Lowest 0-occ =   0.128219884988186 |  0.108768957279496 |  0.147670812696878
  1-occ =         -0.202550345145191 |  -0.40613074477863 | 0.0143983648815247
  1-occ =         -0.202550345145189 | -0.406130744778629 | 0.0143983648815259
  Roothaan mo_energy =
[-1.36621302 -0.90012249 -0.5578114  -0.54842244 -0.54842244 -0.20255035
 -0.20255035  0.12821988  0.34900798  0.3692632   0.37721683  0.37721683
  0.39371273  0.39371273  0.51562858  0.51562858  0.52273616  0.56824929
  0.56824929  0.84392251  1.09700278  1.09700278  1.11355139  1.17020236
  1.17020236  1.26894953  1.26894953  1.29347235  1.31687053  1.31687053
  1.43548443  1.43548443  1.57231809  1.58836259  1.58836259  1.85461528
  1.85461528  1.87447063  2.05187842  2.05187842  2.19740021  2.50260621
  2.50260621  2.5184905   3.00508405  3.08027029  3.08027029  3.08288579
  3.08288579  3.16745995  3.16745995  3.20078917  3.20078917  3.38995443
  3.38995443  3.41802675  3.44406664  3.44406664  3.71165972  3.71165972
  3.71570901  3.71570901  3.88082846  3.99083034  3.99083034  3.99460403
  3.99460403  4.30598412  4.30598412  4.32089432  4.53217     4.53217
  4.63608559  4.82329829  4.82329829  5.19723053  5.50875871  5.50875871
  6.79953487  7.53589279  7.53589279  8.47592177  8.64925828  8.64925828
  8.94454684  9.01690704  9.01690704  9.03258767  9.03258767  9.22598482
  9.22598482  9.64004097  9.64004097 10.01372679 11.98841641 11.98841641
 12.19094835 12.19094835 12.68708808 12.68708808 12.79391784 13.27326086
 13.27326086 13.50632348 13.50632348 13.92327994 14.85167142 33.07136354]
E1 = -67.30248296720218  Ecoul = 28.827800731326462
cycle= 2 E= -25.6149687262767  delta_E= 0.0225  |g|= 0.547  |ddm|= 1.35
    CPU time for cycle= 2     79.17 sec, wall time      0.62 sec
  HOMO = -0.202593498408524  LUMO = 0.140852818572733
                  Roothaan           | alpha              | beta
  Highest 2-occ = -0.599698578720373 | -0.705247635272261 | -0.585733568353747
  Lowest 0-occ =   0.140852818572733 |  0.140005568187926 |  0.165851819599506
  1-occ =         -0.202593498408527 | -0.413875534474317 | 0.0296778844859712
  1-occ =         -0.202593498408524 |  -0.41387553447432 | 0.0296778844859693
  Roothaan mo_energy =
[-1.446916   -0.89179675 -0.61915908 -0.59969858 -0.59969858 -0.2025935
 -0.2025935   0.14085282  0.35012188  0.39166986  0.41508136  0.41508136
  0.41813461  0.41813461  0.50470447  0.50470447  0.5111128   0.56610729
  0.56610729  0.84963871  1.06911072  1.09728462  1.09728462  1.21193142
  1.21193142  1.29147977  1.29147977  1.30321936  1.38318179  1.38318179
  1.47734803  1.47734803  1.55756669  1.55756669  1.57816304  1.80497455
  1.80497455  1.83860672  2.07282521  2.07282521  2.26436971  2.45050119
  2.45050119  2.51966092  2.98153414  3.08591756  3.08591756  3.10739683
  3.10739683  3.21352392  3.21352392  3.23473169  3.23473169  3.45324126
  3.46897952  3.46897952  3.52026513  3.52026513  3.65702366  3.65702366
  3.77710069  3.77710069  3.89155983  4.04009732  4.04009732  4.05321814
  4.05321814  4.26259608  4.26259608  4.31597417  4.42947386  4.42947386
  4.54902049  4.69573589  4.69573589  5.11315417  5.49143039  5.49143039
  6.71601656  7.34134744  7.34134744  8.31498062  8.74497704  8.74497704
  8.87444367  8.87444367  8.89709767  8.89709767  8.91143936  9.10071862
  9.10071862  9.5380845   9.5380845  10.00023735 11.7939112  11.7939112
 12.00300792 12.00300792 12.50553943 12.50553943 12.63149527 13.04803556
 13.04803556 13.28722219 13.28722219 13.72526537 14.94283267 32.78896174]
E1 = -68.31435225611563  Ecoul = 29.761648683493753
cycle= 3 E= -25.6929900630228  delta_E= -0.078  |g|= 0.0848  |ddm|= 0.476
    CPU time for cycle= 3     54.16 sec, wall time      0.44 sec
  HOMO = -0.183971977801304  LUMO = 0.150111973019239
                  Roothaan           | alpha              | beta
  Highest 2-occ = -0.577362292189954 |  -0.62172142049961 | -0.496053203820442
  Lowest 0-occ =   0.150111973019239 |  0.135689575099397 |  0.166305315343804
  1-occ =         -0.183971977801311 | -0.407839152410784 | 0.0464311919348672
  1-occ =         -0.183971977801304 | -0.407839152410781 | 0.0464311919348686
  Roothaan mo_energy =
[-1.41163981 -0.87631904 -0.60036984 -0.57736229 -0.57736229 -0.18397198
 -0.18397198  0.15011197  0.3578932   0.39397804  0.419675    0.419675
  0.42559311  0.42559311  0.51417695  0.51417695  0.52058363  0.57211664
  0.57211664  0.86350075  1.08162569  1.10955538  1.10955538  1.21752568
  1.21752568  1.30341456  1.30341456  1.31583726  1.39353258  1.39353258
  1.48597115  1.48597115  1.56933286  1.56933286  1.59013322  1.8196834
  1.8196834   1.85433336  2.08800471  2.08800471  2.27015797  2.47006438
  2.47006438  2.54108569  2.99480534  3.10732393  3.10732393  3.12237685
  3.12237685  3.2368448   3.2368448   3.24335294  3.24335294  3.47449188
  3.48128624  3.48128624  3.53010597  3.53010597  3.67645616  3.67645616
  3.78341355  3.78341355  3.90375417  4.05966343  4.05966343  4.07112037
  4.07112037  4.28935607  4.28935607  4.33559141  4.45112693  4.45112693
  4.57967378  4.72511673  4.72511673  5.1461752   5.51234929  5.51234929
  6.74260864  7.3860897   7.3860897   8.35795857  8.76247789  8.76247789
  8.90908715  8.90908715  8.93255138  8.93255138  8.9445207   9.13824947
  9.13824947  9.57858417  9.57858417 10.03187283 11.83856775 11.83856775
 12.04782615 12.04782615 12.54829001 12.54829001 12.6718315  13.09743331
 13.09743331 13.33632954 13.33632954 13.77434492 14.96406128 32.85029155]
E1 = -68.1371742569912  Ecoul = 29.58265585844185
cycle= 4 E= -25.6948048889503  delta_E= -0.00181  |g|= 0.014  |ddm|= 0.079
    CPU time for cycle= 4    154.60 sec, wall time      1.22 sec
  HOMO = -0.185141147134177  LUMO = 0.149531305541994
                  Roothaan           | alpha              | beta
  Highest 2-occ = -0.582785355318765 | -0.638074133623073 | -0.514469403869345
  Lowest 0-occ =   0.149531305541994 |   0.13405836298763 |  0.163942335450901
  1-occ =         -0.185141147134178 | -0.413285760665916 | 0.0407879103102096
  1-occ =         -0.185141147134177 | -0.413285760665916 | 0.0407879103102085
  Roothaan mo_energy =
[-1.41682163 -0.87841682 -0.60528789 -0.58278536 -0.58278536 -0.18514115
 -0.18514115  0.14953131  0.35754753  0.3932463   0.41840748  0.41840748
  0.42345936  0.42345936  0.51387426  0.51387426  0.51962131  0.57030155
  0.57030155  0.86127684  1.08052139  1.1074955   1.1074955   1.21533848
  1.21533848  1.30070374  1.30070374  1.31328322  1.38964587  1.38964587
  1.48368391  1.48368391  1.56820847  1.56820847  1.58793151  1.81836085
  1.81836085  1.85232339  2.08443284  2.08443284  2.26801373  2.46758913
  2.46758913  2.53760567  2.99234835  3.10386056  3.10386056  3.11952973
  3.11952973  3.23286844  3.23286844  3.23950779  3.23950779  3.46998331
  3.47619584  3.47619584  3.52685684  3.52685684  3.67476965  3.67476965
  3.78146579  3.78146579  3.90161554  4.05478444  4.05478444  4.06616827
  4.06616827  4.28522512  4.28522512  4.33186019  4.44889968  4.44889968
  4.57608943  4.72213293  4.72213293  5.14195697  5.50901534  5.50901534
  6.73877774  7.37997076  7.37997076  8.35192202  8.75598379  8.75598379
  8.90631021  8.90631021  8.92962827  8.92962827  8.93966574  9.13502047
  9.13502047  9.57453406  9.57453406 10.02695878 11.83316814 11.83316814
 12.04251777 12.04251777 12.54319764 12.54319764 12.66685371 13.09042757
 13.09042757 13.32949875 13.32949875 13.76750679 14.95657894 32.83997345]
E1 = -68.17242901772879  Ecoul = 29.6176514601607
cycle= 5 E= -25.6950640479691  delta_E= -0.000259  |g|= 0.00836  |ddm|= 0.0489
    CPU time for cycle= 5     91.71 sec, wall time      0.77 sec
  HOMO = -0.185786656556599  LUMO = 0.149699500857828
                  Roothaan           | alpha              | beta
  Highest 2-occ = -0.580883177430711 | -0.635160300645992 | -0.512769232848555
  Lowest 0-occ =   0.149699500857828 |  0.134575130243908 |  0.164648160203324
  1-occ =         -0.185786656556609 | -0.412972236824641 |  0.041885051708044
  1-occ =         -0.185786656556599 | -0.412972236824642 | 0.0418850517080482
  Roothaan mo_energy =
[-1.41484379 -0.87786229 -0.604056   -0.58088318 -0.58088318 -0.18578666
 -0.18578666  0.1496995   0.35817987  0.39260867  0.41804591  0.41804591
  0.42293765  0.42293765  0.5149052   0.5149052   0.51995664  0.56996961
  0.56996961  0.86120719  1.08154321  1.10753531  1.10753531  1.214391
  1.214391    1.30041776  1.30041776  1.31348554  1.38866557  1.38866557
  1.48312953  1.48312953  1.5688895   1.5688895   1.58788323  1.81970403
  1.81970403  1.85336194  2.08428933  2.08428933  2.26736576  2.46868201
  2.46868201  2.53792632  2.99301596  3.1040644   3.1040644   3.11932604
  3.11932604  3.23309661  3.23309661  3.23811917  3.23811917  3.46983219
  3.47494863  3.47494863  3.52602456  3.52602456  3.67612162  3.67612162
  3.78081074  3.78081074  3.90175485  4.05455065  4.05455065  4.06577199
  4.06577199  4.28637983  4.28637983  4.33261237  4.45083704  4.45083704
  4.57798453  4.72461576  4.72461576  5.14375314  5.50976594  5.50976594
  6.7406505   7.38347413  7.38347413  8.35483594  8.75526923  8.75526923
  8.9092819   8.9092819   8.93239678  8.93239678  8.94100383  9.13757865
  9.13757865  9.57669639  9.57669639 10.02793693 11.83674278 11.83674278
 12.04592179 12.04592179 12.54647362 12.54647362 12.66991179 13.09436984
 13.09436984 13.33328702 13.33328702 13.77098625 14.95598119 32.8446511 ]
E1 = -68.17345146504093  Ecoul = 29.618607029632734
cycle= 6 E= -25.6951309258092  delta_E= -6.69e-05  |g|= 0.00449  |ddm|= 0.0239
    CPU time for cycle= 6     84.43 sec, wall time      0.67 sec
  HOMO = -0.185718217228356  LUMO = 0.149797711499792
                  Roothaan           | alpha              | beta
  Highest 2-occ = -0.580637845279859 | -0.634706497031891 | -0.513851744591129
  Lowest 0-occ =   0.149797711499792 |  0.134636842310786 |  0.164812762435009
  1-occ =         -0.185718217228361 |  -0.41329224384904 | 0.0419866373655558
  1-occ =         -0.185718217228356 | -0.413292243849039 | 0.0419866373655592
  Roothaan mo_energy =
[-1.41370065 -0.87777012 -0.60319678 -0.58063785 -0.58063785 -0.18571822
 -0.18571822  0.14979771  0.35872389  0.39206289  0.41769427  0.41769427
  0.42250175  0.42250175  0.51548927  0.51548927  0.52021191  0.56980526
  0.56980526  0.8612068   1.08236647  1.10765523  1.10765523  1.21363985
  1.21363985  1.30019753  1.30019753  1.31359426  1.38779986  1.38779986
  1.48266061  1.48266061  1.56945747  1.56945747  1.58785693  1.82066601
  1.82066601  1.85403179  2.08403921  2.08403921  2.26662394  2.46942145
  2.46942145  2.53823852  2.99339662  3.10432513  3.10432513  3.11921807
  3.11921807  3.23324733  3.23324733  3.23697999  3.23697999  3.46959995
  3.47386736  3.47386736  3.52522063  3.52522063  3.67727567  3.67727567
  3.78013254  3.78013254  3.90177181  4.05426255  4.05426255  4.06528314
  4.06528314  4.28711558  4.28711558  4.3328662   4.4522076   4.4522076
  4.57918257  4.72617706  4.72617706  5.14480195  5.51025786  5.51025786
  6.74159905  7.3852671   7.3852671   8.35615007  8.75434936  8.75434936
  8.91166482  8.91166482  8.93445214  8.93445214  8.94173193  9.1393614
  9.1393614   9.57810225  9.57810225 10.02830549 11.83903186 11.83903186
 12.04783844 12.04783844 12.54813588 12.54813588 12.67132579 13.09643354
 13.09643354 13.33498495 13.33498495 13.77236829 14.95513293 32.84624899]
E1 = -68.17432208688308  Ecoul = 29.61945404853084
cycle= 7 E= -25.6951545287532  delta_E= -2.36e-05  |g|= 0.00168  |ddm|= 0.0192
    CPU time for cycle= 7     54.16 sec, wall time      0.43 sec
  HOMO = -0.18561202279649  LUMO = 0.149944058984749
                  Roothaan           | alpha              | beta
  Highest 2-occ = -0.580465749729754 | -0.634259950991528 | -0.514772677903326
  Lowest 0-occ =   0.149944058984749 |  0.134754572261689 |  0.164967233525974
  1-occ =         -0.185612022796491 | -0.413467948839602 |  0.042121908645443
  1-occ =          -0.18561202279649 | -0.413467948839601 | 0.0421219086454431
  Roothaan mo_energy =
[-1.41327946 -0.87755638 -0.60259686 -0.58046575 -0.58046575 -0.18561202
 -0.18561202  0.14994406  0.3589658   0.39205588  0.41762805  0.41762805
  0.42243798  0.42243798  0.5156381   0.5156381   0.52023922  0.56978047
  0.56978047  0.86140771  1.08263484  1.10774045  1.10774045  1.21344295
  1.21344295  1.30024613  1.30024613  1.31372486  1.38761749  1.38761749
  1.48264815  1.48264815  1.56965147  1.56965147  1.58791504  1.82093413
  1.82093413  1.85438001  2.08405004  2.08405004  2.26671149  2.46973537
  2.46973537  2.53839745  2.9936002   3.10443236  3.10443236  3.11926185
  3.11926185  3.233372    3.233372    3.23666243  3.23666243  3.46970703
  3.47358385  3.47358385  3.5252007   3.5252007   3.67766745  3.67766745
  3.78023079  3.78023079  3.90199509  4.05431882  4.05431882  4.06520748
  4.06520748  4.28745229  4.28745229  4.33313518  4.45269792  4.45269792
  4.57964283  4.72673425  4.72673425  5.14519656  5.51049577  5.51049577
  6.74211666  7.38616123  7.38616123  8.3568597   8.7542251   8.7542251
  8.91252834  8.91252834  8.93515131  8.93515131  8.94206088  9.13994054
  9.13994054  9.57856289  9.57856289 10.02860149 11.84008501 11.84008501
 12.04867362 12.04867362 12.54882722 12.54882722 12.67192855 13.09752991
 13.09752991 13.33586373 13.33586373 13.77309335 14.95503146 32.84742179]
E1 = -68.17414853394578  Ecoul = 29.61927806081731
cycle= 8 E= -25.6951569635294  delta_E= -2.43e-06  |g|= 0.000239  |ddm|= 0.00648
    CPU time for cycle= 8    118.43 sec, wall time      0.96 sec
  HOMO = -0.185707267807875  LUMO = 0.149901360644892
                  Roothaan           | alpha              | beta
  Highest 2-occ = -0.580455250668127 | -0.634072292543202 | -0.515180516599108
  Lowest 0-occ =   0.149901360644892 |  0.134775059660142 |  0.165025184475796
  1-occ =         -0.185707267807883 | -0.413537156729789 |  0.042136247712197
  1-occ =         -0.185707267807875 | -0.413537156729785 | 0.0421362477122013
  Roothaan mo_energy =
[-1.41328474 -0.87760607 -0.60260783 -0.58045525 -0.58045525 -0.18570727
 -0.18570727  0.14990136  0.3589514   0.39200233  0.41761592  0.41761592
  0.42239534  0.42239534  0.51561576  0.51561576  0.52022204  0.56975801
  0.56975801  0.86136301  1.08263354  1.10772167  1.10772167  1.2134071
  1.2134071   1.30020004  1.30020004  1.31367885  1.38755251  1.38755251
  1.48258704  1.48258704  1.56963751  1.56963751  1.58787938  1.82092815
  1.82092815  1.8543472   2.08399766  2.08399766  2.26659957  2.46970688
  2.46970688  2.53836841  2.9935685   3.10440636  3.10440636  3.1192161
  3.1192161   3.23332634  3.23332634  3.23659828  3.23659828  3.46964134
  3.47350694  3.47350694  3.52509738  3.52509738  3.67765411  3.67765411
  3.78012239  3.78012239  3.90192785  4.05425043  4.05425043  4.06513778
  4.06513778  4.28741395  4.28741395  4.33306942  4.45268887  4.45268887
  4.57962717  4.72673136  4.72673136  5.1451784   5.51045465  5.51045465
  6.74207334  7.38614238  7.38614238  8.35682858  8.75411529  8.75411529
  8.91254439  8.91254439  8.93515911  8.93515911  8.9420196   9.13993962
  9.13993962  9.5785462   9.5785462  10.02852669 11.84008896 11.84008896
 12.04866301 12.04866301 12.54880924 12.54880924 12.6718983  13.09751785
 13.09751785 13.33583773 13.33583773 13.77305418 14.95493159 32.84736864]
E1 = -68.17401090252334  Ecoul = 29.619140400054462
cycle= 9 E= -25.6951569928698  delta_E= -2.93e-08  |g|= 5.05e-05  |ddm|= 0.000392
    CPU time for cycle= 9     58.84 sec, wall time      0.47 sec
  HOMO = -0.185692223538022  LUMO = 0.149908526265801
                  Roothaan           | alpha              | beta
  Highest 2-occ = -0.580452592286316 | -0.634071745802442 | -0.515194828401742
  Lowest 0-occ =   0.149908526265801 |  0.134783333483598 |  0.165033042604603
  1-occ =         -0.185692223538024 | -0.413528065380027 | 0.0421442640323671
  1-occ =         -0.185692223538022 | -0.413528065380026 | 0.0421442640323679
  Roothaan mo_energy =
[-1.41326812 -0.87759463 -0.60259413 -0.58045259 -0.58045259 -0.18569222
 -0.18569222  0.14990853  0.3589586   0.39200521  0.41761691  0.41761691
  0.42239823  0.42239823  0.51562072  0.51562072  0.52022636  0.56976369
  0.56976369  0.86137196  1.08264167  1.10772749  1.10772749  1.21340797
  1.21340797  1.30020717  1.30020717  1.31368778  1.38755868  1.38755868
  1.48259358  1.48259358  1.56964417  1.56964417  1.58788499  1.82093826
  1.82093826  1.85436053  2.08400638  2.08400638  2.26660963  2.46971843
  2.46971843  2.53837874  2.99357945  3.10441516  3.10441516  3.11922304
  3.11922304  3.23333785  3.23333785  3.23660102  3.23660102  3.46965414
  3.47351328  3.47351328  3.52510715  3.52510715  3.6776657   3.6776657
  3.7801323   3.7801323   3.90193874  4.05426433  4.05426433  4.06514849
  4.06514849  4.28742882  4.28742882  4.33308646  4.45270449  4.45270449
  4.57964427  4.72674982  4.72674982  5.14519669  5.51046827  5.51046827
  6.74209356  7.38616874  7.38616874  8.35685298  8.75413104  8.75413104
  8.91256598  8.91256598  8.93517889  8.93517889  8.94203903  9.13995833
  9.13995833  9.57856434  9.57856434 10.02854615 11.8401177  11.8401177
 12.04868888 12.04868888 12.54883366 12.54883366 12.67192228 13.09754947
 13.09754947 13.3358666  13.3358666  13.7730814  14.95495009 32.84740478]
E1 = -68.1739344884374  Ecoul = 29.61906398530396
cycle= 10 E= -25.6951569935344  delta_E= -6.65e-10  |g|= 5.25e-06  |ddm|= 7.33e-05
    CPU time for cycle= 10    101.58 sec, wall time      0.84 sec
  HOMO = -0.185694545136654  LUMO = 0.149907697763294
                  Roothaan           | alpha              | beta
  Highest 2-occ = -0.580454152712863 | -0.634077204144701 | -0.515204979596174
  Lowest 0-occ =   0.149907697763294 |  0.134782759074019 |   0.16503263645257
  1-occ =         -0.185694545136656 | -0.413530442071528 | 0.0421414627164376
  1-occ =         -0.185694545136654 | -0.413530442071531 | 0.0421414627164301
  Roothaan mo_energy =
[-1.41327106 -0.87759653 -0.60259684 -0.58045415 -0.58045415 -0.18569455
 -0.18569455  0.1499077   0.35895747  0.39200497  0.41761665  0.41761665
  0.42239726  0.42239726  0.51561941  0.51561941  0.52022512  0.56976279
  0.56976279  0.86137086  1.0826401   1.10772626  1.10772626  1.21340737
  1.21340737  1.30020591  1.30020591  1.31368598  1.387557    1.387557
  1.4825924   1.4825924   1.56964272  1.56964272  1.58788376  1.82093622
  1.82093622  1.85435835  2.0840044   2.0840044   2.26660835  2.46971626
  2.46971626  2.53837643  2.99357738  3.10441299  3.10441299  3.11922134
  3.11922134  3.23333537  3.23333537  3.2365997   3.2365997   3.46965176
  3.47351112  3.47351112  3.52510542  3.52510542  3.67766338  3.67766338
  3.78013116  3.78013116  3.90193715  4.05426156  4.05426156  4.06514581
  4.06514581  4.28742577  4.28742577  4.33308364  4.45270172  4.45270172
  4.57964115  4.72674659  4.72674659  5.14519336  5.51046555  5.51046555
  6.74209048  7.38616486  7.38616486  8.35684926  8.75412753  8.75412753
  8.9125624   8.9125624   8.9351753   8.9351753   8.94203538  9.13995474
  9.13995474  9.5785607   9.5785607  10.02854269 11.84011348 11.84011348
 12.04868474 12.04868474 12.54882962 12.54882962 12.6719183  13.09754509
 13.09754509 13.33586231 13.33586231 13.77307719 14.95494613 32.84740024]
E1 = -68.17394100943699  Ecoul = 29.619070506275094
Extra cycle  E= -25.6951569935629  delta_E= -2.85e-11  |g|= 2.34e-06  |ddm|= 1.08e-05
    CPU time for scf_cycle   1058.73 sec, wall time      8.76 sec
    CPU time for SCF   1058.75 sec, wall time      8.76 sec
converged SCF energy = -25.6951569935629
