#INFO: **** input file is /home/nkousuke/lustre/toBeSync/turboRVB/05turbo-genius-development/turbogenius_paper/04data/sanity_checks/03pyscf_HF_turbo_VMC_via_trexio/00open_boundary/results/N2/pyscf-HF-workflow/run.py ****

from pyscf_wrapper import Pyscf_wrapper

# input variables
pyscf_chkfile="pyscf.chk"
structure_file="N2.xyz"

# input variables
omp_num_threads=128
charge=0
spin=0
basis="ccecp-ccpvqz"
ecp="ccecp"
scf_method="HF"
dft_xc="NA"
solver_newton=False
MP2_flag=False
CCSD_flag=False
pyscf_output="out.pyscf"
twist_average=False
exp_to_discard=0.0
kpt=[0.0, 0.0, 0.0]
kpt_grid=[1, 1, 1]
smearing_method="fermi"
smearing_sigma=0.0

pyscf_calc=Pyscf_wrapper(
                        structure_file=structure_file,
                        chkfile=pyscf_chkfile,
                        )

pyscf_calc.run_pyscf(
                  omp_num_threads=omp_num_threads,
                  charge=charge,
                  spin=spin,
                  basis=basis,
                  ecp=ecp,
                  scf_method=scf_method,
                  dft_xc=dft_xc,
                  solver_newton=solver_newton,
                  MP2_flag=MP2_flag,
                  CCSD_flag=CCSD_flag,
                  pyscf_output=pyscf_output,
                  twist_average=twist_average,
                  exp_to_discard=exp_to_discard,
                  kpt=kpt,
                  kpt_grid=kpt_grid,
                  smearing_method=smearing_method,
                  smearing_sigma=smearing_sigma
                  )
                #INFO: ******************** input file end ********************


System: uname_result(system='Linux', node='spcc-200', release='5.4.0-66-generic', version='#74-Ubuntu SMP Wed Jan 27 22:54:38 UTC 2021', machine='x86_64', processor='x86_64')  Threads 128
Python 3.7.3 (default, Mar 27 2019, 22:11:17) 
[GCC 7.3.0]
numpy 1.20.1  scipy 1.7.3
Date: Mon Dec 19 18:07:43 2022
PySCF version 2.0.1
PySCF path  /home/nkousuke/application/anaconda3/lib/python3.7/site-packages/pyscf

[CONFIG] conf_file /home/nkousuke/.pyscf_conf.py
[INPUT] verbose = 5
[INPUT] max_memory = 507459.828125 
[INPUT] num. atoms = 2
[INPUT] num. electrons = 10
[INPUT] charge = 0
[INPUT] spin (= nelec alpha-beta = 2S) = 0
[INPUT] symmetry False subgroup None
[INPUT] Mole.unit = A
[INPUT]  1 N      0.000000000000   0.000000000000   0.548800000000 AA    0.000000000000   0.000000000000   1.037081697161 Bohr
[INPUT]  2 N      0.000000000000   0.000000000000  -0.548800000000 AA    0.000000000000   0.000000000000  -1.037081697161 Bohr
[INPUT] ---------------- BASIS SET ---------------- 
[INPUT] l, kappa, [nprim/nctr], expnt,             c_1 c_2 ...
[INPUT] N
[INPUT] 0    0    [9    /1   ]  42.693822         -0.0009357
                                19.963207         0.0063295
                                9.3345971         0.0105038
                                4.9278187         -0.1653735
                                2.04092           -0.0005352
                                0.96708           0.2452063
                                0.476131          0.4582128
                                0.211443          0.3641224
                                0.098869          0.0620406
[INPUT] 0    0    [1    /1   ]  1.625001             1
[INPUT] 0    0    [1    /1   ]  0.310826             1
[INPUT] 0    0    [1    /1   ]  0.135764             1
[INPUT] 1    0    [9    /1   ]  18.925871         0.0073505
                                9.225603          0.0292844
                                4.581431          0.0652168
                                2.300164          0.1405153
                                1.154825          0.2328188
                                0.582039          0.2989556
                                0.290535          0.2802507
                                0.145867          0.1527995
                                0.073234          0.0355475
[INPUT] 1    0    [1    /1   ]  1.02075              1
[INPUT] 1    0    [1    /1   ]  0.413103             1
[INPUT] 1    0    [1    /1   ]  0.140736             1
[INPUT] 2    0    [1    /1   ]  3.028459             1
[INPUT] 2    0    [1    /1   ]  1.009895             1
[INPUT] 2    0    [1    /1   ]  0.346233             1
[INPUT] 3    0    [1    /1   ]  2.024747             1
[INPUT] 3    0    [1    /1   ]  0.691129             1
[INPUT] 4    0    [1    /1   ]  1.357512             1

nuclear repulsion = 12.0530523624271
number of shells = 28
number of NR pGTOs = 172
number of NR cGTOs = 108
basis = ccecp-ccpvqz
ecp = ccecp
CPU time:         4.09


******** <class 'pyscf.scf.hf.RHF'> ********
method = RHF
initial guess = minao
damping factor = 0
level_shift factor = 0
DIIS = <class 'pyscf.scf.diis.CDIIS'>
diis_start_cycle = 1
diis_space = 8
SCF conv_tol = 1e-09
SCF conv_tol_grad = None
SCF max_cycles = 200
direct_scf = True
direct_scf_tol = 1e-13
chkfile to save SCF result = pyscf.chk
max_memory 507459 MB (current use 106 MB)
Set gradient conv threshold to 3.16228e-05
E1 = -54.332296684030894  E_coul = 23.190013623086923
init E= -19.0892306985169
cond(S) = 23831.45358942404
    CPU time for initialize scf    145.85 sec, wall time      1.48 sec
  HOMO = -0.41891405816632  LUMO = 0.0299502789678109
  mo_energy =
[-1.75134513 -0.70596841 -0.52264659 -0.52264659 -0.41891406  0.02995028
  0.02995028  0.31292911  0.34509356  0.41614457  0.41614457  0.42724426
  0.52922234  0.52922234  0.60923089  0.80894     0.80894     0.86641441
  1.07914261  1.07914261  1.17171854  1.17171854  1.22240197  1.3823523
  1.3823523   1.43084148  1.94611283  1.94611283  1.991511    2.21490295
  2.26259228  2.26259228  2.2894407   2.48052566  2.48052566  2.57919151
  2.57919151  2.77209772  2.77209772  2.86542157  2.97739709  2.97739709
  3.07850118  3.07850118  3.1210457   3.1210457   3.20866536  3.22165031
  3.22165031  3.64521006  3.64521006  3.65545135  3.72763334  3.72763334
  5.0068844   5.0068844   5.10883354  5.15418021  6.34337779  6.34337779
  6.58498053  6.60962681  6.60962681  6.77282335  6.77282335  6.82000141
  6.82000141  6.90140774  6.90140774  7.03238884  7.03238884  7.45842091
  7.45842091  7.66282118  7.87151455  7.87151455  7.92322142  7.92322142
  8.0395759   8.57599477  8.59010077  8.59010077  8.72109739  8.72109739
  8.78121897  8.91452181  8.91452181  8.91699139  8.91699139  9.17351217
  9.17351217  9.4532732   9.4532732   9.78884116  9.78884116 10.22168515
 10.47016791 10.47016791 10.53221872 10.53221872 10.70602377 10.70602377
 11.26061785 12.23976994 13.10316268 13.10316268 18.13051499 19.42071471]
E1 = -54.47204635737032  E_coul = 22.968996501001193
cycle= 1 E= -19.449997493942  delta_E= -0.361  |g|= 0.23  |ddm|= 2.64
    CPU time for cycle= 1     32.34 sec, wall time      0.27 sec
  HOMO = -0.648970587776794  LUMO = 0.126846709907455
  mo_energy =
[-1.5251066  -0.79894293 -0.65166241 -0.64897059 -0.64897059  0.12684671
  0.12684671  0.32200969  0.33510985  0.39978988  0.39978988  0.42246421
  0.54249218  0.54249218  0.60460963  0.78193476  0.78193476  0.90089162
  1.07553389  1.07553389  1.16232868  1.16232868  1.21214309  1.38814831
  1.38814831  1.44721573  1.92297927  1.92297927  1.98681833  2.20734224
  2.24661217  2.24661217  2.2798198   2.45086263  2.45086263  2.55507736
  2.55507736  2.75791222  2.75791222  2.87466069  2.95299668  2.95299668
  3.08439833  3.08439833  3.10105818  3.10105818  3.20443736  3.20530802
  3.20530802  3.64679981  3.64679981  3.65576977  3.71331724  3.71331724
  5.00403791  5.00403791  5.11531754  5.15326809  6.3239261   6.3239261
  6.57114065  6.57114065  6.57716318  6.74668043  6.74668043  6.80892353
  6.80892353  6.88030289  6.88030289  6.99377074  6.99377074  7.44871535
  7.44871535  7.66799097  7.85008316  7.85008316  7.92368624  7.92368624
  8.03015566  8.58186034  8.58511569  8.58511569  8.67971124  8.67971124
  8.77674768  8.87678183  8.87678183  8.90074907  8.90074907  9.17823242
  9.17823242  9.43006059  9.43006059  9.75026458  9.75026458 10.21145141
 10.46549527 10.46549527 10.50396028 10.50396028 10.69993233 10.69993233
 11.27465212 12.25341071 13.102217   13.102217   18.10725216 19.40442702]
E1 = -54.860398214970246  E_coul = 23.344604010381016
cycle= 2 E= -19.4627418421621  delta_E= -0.0127  |g|= 0.063  |ddm|= 0.353
    CPU time for cycle= 2     65.56 sec, wall time      0.52 sec
  HOMO = -0.61437194165269  LUMO = 0.152920552680609
  mo_energy =
[-1.47370203 -0.77446743 -0.62912223 -0.61437194 -0.61437194  0.15292055
  0.15292055  0.32519401  0.34431602  0.40952592  0.40952592  0.42655134
  0.5561326   0.5561326   0.60956072  0.79963089  0.79963089  0.92974812
  1.09003147  1.09003147  1.17392994  1.17392994  1.22590717  1.3969723
  1.3969723   1.46869906  1.95253064  1.95253064  2.00340845  2.23136177
  2.27247119  2.27247119  2.30725763  2.47337386  2.47337386  2.58340488
  2.58340488  2.79433274  2.79433274  2.89529894  2.971521    2.971521
  3.10054926  3.10054926  3.12782088  3.12782088  3.22996907  3.22996907
  3.23219197  3.66456652  3.66456652  3.67481571  3.7366279   3.7366279
  5.03495152  5.03495152  5.15158138  5.19669551  6.35918803  6.35918803
  6.60229029  6.60229029  6.61961298  6.79615293  6.79615293  6.85341389
  6.85341389  6.92490211  6.92490211  7.02367099  7.02367099  7.50429385
  7.50429385  7.722302    7.88220073  7.88220073  7.95297913  7.95297913
  8.0682347   8.61187004  8.61187004  8.62122737  8.72172729  8.72172729
  8.81777659  8.91801956  8.91801956  8.93996199  8.93996199  9.21096195
  9.21096195  9.48396968  9.48396968  9.80136477  9.80136477 10.2522568
 10.52327822 10.52327822 10.54980355 10.54980355 10.75225428 10.75225428
 11.3347821  12.31648036 13.15247349 13.15247349 18.16587705 19.4762509 ]
E1 = -54.77562585248013  E_coul = 23.258984301883974
cycle= 3 E= -19.463589188169  delta_E= -0.000847  |g|= 0.0146  |ddm|= 0.0984
    CPU time for cycle= 3     61.67 sec, wall time      0.49 sec
  HOMO = -0.617366690323909  LUMO = 0.15130662711992
  mo_energy =
[-1.47862832 -0.77648493 -0.63527234 -0.61736669 -0.61736669  0.15130663
  0.15130663  0.32522622  0.34372977  0.40909079  0.40909079  0.42573506
  0.55510527  0.55510527  0.60917666  0.79820757  0.79820757  0.92805258
  1.08900147  1.08900147  1.1732046   1.1732046   1.22443566  1.39618862
  1.39618862  1.46522178  1.94986919  1.94986919  2.00142991  2.22954383
  2.27000959  2.27000959  2.30492221  2.47161909  2.47161909  2.58087159
  2.58087159  2.79041464  2.79041464  2.89231941  2.97000021  2.97000021
  3.09898819  3.09898819  3.12528172  3.12528172  3.22741283  3.22741283
  3.22926158  3.6633204   3.6633204   3.67361374  3.73449796  3.73449796
  5.03157256  5.03157256  5.14776481  5.19236877  6.35592433  6.35592433
  6.59892755  6.59892755  6.61494736  6.79000666  6.79000666  6.84929943
  6.84929943  6.91974497  6.91974497  7.02031207  7.02031207  7.49891799
  7.49891799  7.71683751  7.87904054  7.87904054  7.95021796  7.95021796
  8.06380479  8.60924116  8.60924116  8.61758715  8.71618329  8.71618329
  8.81373444  8.91250055  8.91250055  8.93573749  8.93573749  9.20790409
  9.20790409  9.47766732  9.47766732  9.79449533  9.79449533 10.24787974
 10.51682016 10.51682016 10.54404771 10.54404771 10.74646722 10.74646722
 11.32862894 12.30999666 13.14712369 13.14712369 18.15847293 19.46760195]
E1 = -54.78585528224353  E_coul = 23.26914057934742
cycle= 4 E= -19.463662340469  delta_E= -7.32e-05  |g|= 0.00119  |ddm|= 0.036
    CPU time for cycle= 4     39.42 sec, wall time      0.31 sec
  HOMO = -0.617135039353838  LUMO = 0.151549951580381
  mo_energy =
[-1.47835958 -0.77612113 -0.6351319  -0.61713504 -0.61713504  0.15154995
  0.15154995  0.32531304  0.34373444  0.40913071  0.40913071  0.42573251
  0.55523916  0.55523916  0.60919295  0.79817658  0.79817658  0.92830759
  1.08911918  1.08911918  1.1732314   1.1732314   1.22448613  1.39631159
  1.39631159  1.46542608  1.95000562  1.95000562  2.00172232  2.22974734
  2.27016714  2.27016714  2.30499387  2.47157404  2.47157404  2.58087724
  2.58087724  2.79062069  2.79062069  2.89260928  2.97000776  2.97000776
  3.09924779  3.09924779  3.12547449  3.12547449  3.22760987  3.22760987
  3.22956666  3.66353998  3.66353998  3.67382893  3.73456861  3.73456861
  5.03182816  5.03182816  5.14811095  5.19266784  6.35599854  6.35599854
  6.59894154  6.59894154  6.61544471  6.79053603  6.79053603  6.84937781
  6.84937781  6.92021465  6.92021465  7.02034589  7.02034589  7.49902369
  7.49902369  7.71730126  7.87916457  7.87916457  7.95078963  7.95078963
  8.06445429  8.60973525  8.60973525  8.6181492   8.71642347  8.71642347
  8.81406584  8.91275377  8.91275377  8.93615455  8.93615455  9.20860091
  9.20860091  9.4778734   9.4778734   9.79496283  9.79496283 10.24857153
 10.51721896 10.51721896 10.54446389 10.54446389 10.74695936 10.74695936
 11.32921049 12.31068894 13.14767514 13.14767514 18.15925554 19.46835386]
E1 = -54.78512430218773  E_coul = 23.2684090842093
cycle= 5 E= -19.4636628555513  delta_E= -5.15e-07  |g|= 0.000191  |ddm|= 0.00348
    CPU time for cycle= 5     64.33 sec, wall time      0.50 sec
  HOMO = -0.617173404537464  LUMO = 0.151510305470031
  mo_energy =
[-1.47841727 -0.77618671 -0.63521985 -0.6171734  -0.6171734   0.15151031
  0.15151031  0.3252958   0.34371627  0.40913041  0.40913041  0.42571389
  0.55522077  0.55522077  0.60918218  0.79815393  0.79815393  0.92826223
  1.08909191  1.08909191  1.17321428  1.17321428  1.22446374  1.39628714
  1.39628714  1.46536897  1.94996849  1.94996849  2.00166339  2.22970547
  2.27012862  2.27012862  2.30495464  2.47154902  2.47154902  2.58084333
  2.58084333  2.79056152  2.79056152  2.89254834  2.96998148  2.96998148
  3.09920227  3.09920227  3.12543003  3.12543003  3.22756492  3.22756492
  3.22950803  3.66349915  3.66349915  3.67378899  3.73452872  3.73452872
  5.03176589  5.03176589  5.14804325  5.19259594  6.35594669  6.35594669
  6.59889416  6.59889416  6.61536183  6.79044562  6.79044562  6.84931838
  6.84931838  6.92013212  6.92013212  7.02029732  7.02029732  7.49895423
  7.49895423  7.7172177   7.87911031  7.87911031  7.95072124  7.95072124
  8.06436765  8.60967157  8.60967157  8.61807267  8.71634684  8.71634684
  8.8139936   8.91267671  8.91267671  8.93608012  8.93608012  9.20852623
  9.20852623  9.47778952  9.47778952  9.79486666  9.79486666 10.24848814
 10.51712674 10.51712674 10.54437642 10.54437642 10.74686768 10.74686768
 11.32911507 12.31058625 13.1475852  13.1475852  18.15914062 19.468229  ]
E1 = -54.785229037657494  E_coul = 23.26851380383178
cycle= 6 E= -19.4636628713986  delta_E= -1.58e-08  |g|= 3.8e-05  |ddm|= 0.00061
    CPU time for cycle= 6     88.39 sec, wall time      0.71 sec
  HOMO = -0.617155225057239  LUMO = 0.151523256072185
  mo_energy =
[-1.47840027 -0.77617758 -0.63521311 -0.61715523 -0.61715523  0.15152326
  0.15152326  0.32529563  0.34371921  0.4091374   0.4091374   0.42571443
  0.55522829  0.55522829  0.60918481  0.79816117  0.79816117  0.92827329
  1.08909961  1.08909961  1.17322076  1.17322076  1.22446977  1.39629159
  1.39629159  1.4653756   1.94998304  1.94998304  2.00167236  2.22971685
  2.27014185  2.27014185  2.30496416  2.47155892  2.47155892  2.58085386
  2.58085386  2.79057581  2.79057581  2.89255629  2.96999123  2.96999123
  3.0992117   3.0992117   3.125445    3.125445    3.22757886  3.22757886
  3.22952226  3.66350946  3.66350946  3.67379956  3.73453877  3.73453877
  5.03177884  5.03177884  5.148058    5.19261173  6.35596037  6.35596037
  6.59890809  6.59890809  6.61538229  6.79046988  6.79046988  6.84933229
  6.84933229  6.92015409  6.92015409  7.02031147  7.02031147  7.49896975
  7.49896975  7.71723921  7.87912477  7.87912477  7.9507427   7.9507427
  8.0643915   8.6096919   8.6096919   8.61809506  8.71636687  8.71636687
  8.81401115  8.91269672  8.91269672  8.93610142  8.93610142  9.20855141
  9.20855141  9.47780774  9.47780774  9.79489165  9.79489165 10.24851518
 10.51714739 10.51714739 10.54439886 10.54439886 10.74689025 10.74689025
 11.32913855 12.31061265 13.14760876 13.14760876 18.15916928 19.46825786]
E1 = -54.78520502802166  E_coul = 23.268489793438288
cycle= 7 E= -19.4636628721563  delta_E= -7.58e-10  |g|= 4.09e-06  |ddm|= 0.000145
    CPU time for cycle= 7     51.54 sec, wall time      0.40 sec
  HOMO = -0.617157139900664  LUMO = 0.15152154082249
  mo_energy =
[-1.47840352 -0.77617967 -0.63521525 -0.61715714 -0.61715714  0.15152154
  0.15152154  0.32529529  0.34371857  0.40913696  0.40913696  0.425714
  0.55522736  0.55522736  0.6091845   0.79816014  0.79816014  0.92827134
  1.08909862  1.08909862  1.17322008  1.17322008  1.22446881  1.39629092
  1.39629092  1.46537374  1.94998118  1.94998118  2.00167079  2.22971514
  2.27014011  2.27014011  2.30496243  2.47155762  2.47155762  2.58085224
  2.58085224  2.79057337  2.79057337  2.8925545   2.96999009  2.96999009
  3.09921033  3.09921033  3.12544311  3.12544311  3.22757706  3.22757706
  3.22952012  3.66350813  3.66350813  3.67379816  3.73453724  3.73453724
  5.03177659  5.03177659  5.14805543  5.19260878  6.35595814  6.35595814
  6.59890602  6.59890602  6.61537908  6.79046608  6.79046608  6.84932966
  6.84932966  6.92015068  6.92015068  7.02030942  7.02030942  7.49896661
  7.49896661  7.71723564  7.87912259  7.87912259  7.95074012  7.95074012
  8.06438823  8.60968955  8.60968955  8.61809201  8.71636369  8.71636369
  8.81400823  8.91269356  8.91269356  8.93609841  8.93609841  9.20854846
  9.20854846  9.4778042   9.4778042   9.79488765  9.79488765 10.24851168
 10.51714361 10.51714361 10.54439527 10.54439527 10.74688649 10.74688649
 11.32913456 12.31060832 13.14760502 13.14760502 18.15916458 19.46825272]
E1 = -54.785211376104535  E_coul = 23.26849614151693
Extra cycle  E= -19.4636628721605  delta_E= -4.23e-12  |g|= 1.04e-06  |ddm|= 8.5e-06
    CPU time for scf_cycle    603.91 sec, wall time      5.12 sec
    CPU time for SCF    603.93 sec, wall time      5.12 sec
converged SCF energy = -19.4636628721605
