#INFO: **** input file is /home/nkousuke/lustre/toBeSync/turboRVB/05turbo-genius-development/turbogenius_paper/04data/sanity_checks/03pyscf_HF_turbo_VMC_via_trexio/00open_boundary/results/O2-/pyscf-HF-workflow/run.py ****

from pyscf_wrapper import Pyscf_wrapper

# input variables
pyscf_chkfile="pyscf.chk"
structure_file="O2.xyz"

# input variables
omp_num_threads=128
charge=-1
spin=3
basis="ccecp-ccpvqz"
ecp="ccecp"
scf_method="HF"
dft_xc="NA"
solver_newton=False
MP2_flag=False
CCSD_flag=False
pyscf_output="out.pyscf"
twist_average=False
exp_to_discard=0.0
kpt=[0.0, 0.0, 0.0]
kpt_grid=[1, 1, 1]
smearing_method="fermi"
smearing_sigma=0.0

pyscf_calc=Pyscf_wrapper(
                        structure_file=structure_file,
                        chkfile=pyscf_chkfile,
                        )

pyscf_calc.run_pyscf(
                  omp_num_threads=omp_num_threads,
                  charge=charge,
                  spin=spin,
                  basis=basis,
                  ecp=ecp,
                  scf_method=scf_method,
                  dft_xc=dft_xc,
                  solver_newton=solver_newton,
                  MP2_flag=MP2_flag,
                  CCSD_flag=CCSD_flag,
                  pyscf_output=pyscf_output,
                  twist_average=twist_average,
                  exp_to_discard=exp_to_discard,
                  kpt=kpt,
                  kpt_grid=kpt_grid,
                  smearing_method=smearing_method,
                  smearing_sigma=smearing_sigma
                  )
                #INFO: ******************** input file end ********************


System: uname_result(system='Linux', node='spcc-200', release='5.4.0-66-generic', version='#74-Ubuntu SMP Wed Jan 27 22:54:38 UTC 2021', machine='x86_64', processor='x86_64')  Threads 128
Python 3.7.3 (default, Mar 27 2019, 22:11:17) 
[GCC 7.3.0]
numpy 1.20.1  scipy 1.7.3
Date: Mon Dec 19 18:11:42 2022
PySCF version 2.0.1
PySCF path  /home/nkousuke/application/anaconda3/lib/python3.7/site-packages/pyscf

[CONFIG] conf_file /home/nkousuke/.pyscf_conf.py
[INPUT] verbose = 5
[INPUT] max_memory = 507513.890625 
[INPUT] num. atoms = 2
[INPUT] num. electrons = 13
[INPUT] charge = -1
[INPUT] spin (= nelec alpha-beta = 2S) = 3
[INPUT] symmetry False subgroup None
[INPUT] Mole.unit = A
[INPUT]  1 O      0.000000000000   0.000000000000   0.603850000000 AA    0.000000000000   0.000000000000   1.141111120319 Bohr
[INPUT]  2 O      0.000000000000   0.000000000000  -0.603850000000 AA    0.000000000000   0.000000000000  -1.141111120319 Bohr
[INPUT] ---------------- BASIS SET ---------------- 
[INPUT] l, kappa, [nprim/nctr], expnt,             c_1 c_2 ...
[INPUT] O
[INPUT] 0    0    [9    /1   ]  54.775216         -0.0012444
                                25.616801         0.010733
                                11.980245         0.0018889
                                6.992317          -0.1742537
                                2.620277          0.0017622
                                1.225429          0.3161846
                                0.577797          0.4512023
                                0.268022          0.3121534
                                0.125346          0.0511167
[INPUT] 0    0    [1    /1   ]  1.351771             1
[INPUT] 0    0    [1    /1   ]  0.843157             1
[INPUT] 0    0    [1    /1   ]  0.22438              1
[INPUT] 1    0    [9    /1   ]  22.217266         0.0104866
                                10.74755          0.0366435
                                5.315785          0.0803674
                                2.660761          0.162701
                                1.331816          0.2377791
                                0.678626          0.2811422
                                0.333673          0.2643189
                                0.167017          0.1466014
                                0.083598          0.0458145
[INPUT] 1    0    [1    /1   ]  1.106737             1
[INPUT] 1    0    [1    /1   ]  0.452364             1
[INPUT] 1    0    [1    /1   ]  0.148562             1
[INPUT] 2    0    [1    /1   ]  4.008867             1
[INPUT] 2    0    [1    /1   ]  1.344331             1
[INPUT] 2    0    [1    /1   ]  0.455711             1
[INPUT] 3    0    [1    /1   ]  2.763115             1
[INPUT] 3    0    [1    /1   ]  0.876289             1
[INPUT] 4    0    [1    /1   ]  1.759081             1

nuclear repulsion = 15.7740991911236
number of shells = 28
number of NR pGTOs = 172
number of NR cGTOs = 108
basis = ccecp-ccpvqz
ecp = ccecp
CPU time:         5.46


******** <class 'pyscf.scf.rohf.ROHF'> ********
method = ROHF-RHF
initial guess = minao
damping factor = 0
level_shift factor = 0
DIIS = <class 'pyscf.scf.diis.CDIIS'>
diis_start_cycle = 1
diis_space = 8
SCF conv_tol = 1e-09
SCF conv_tol_grad = None
SCF max_cycles = 200
direct_scf = True
direct_scf_tol = 1e-13
chkfile to save SCF result = pyscf.chk
max_memory 507513 MB (current use 106 MB)
num. doubly occ = 5  num. singly occ = 3
Set gradient conv threshold to 3.16228e-05
E1 = -83.23188646302017  Ecoul = 36.23017289760689
init E= -31.2276143742897
cond(S) = 8414.286590890144
    CPU time for initialize scf    112.47 sec, wall time      1.13 sec
  HOMO = 0.217559452978471  LUMO = 0.427012687206694
                  Roothaan           | alpha              | beta
  Highest 2-occ = -0.644598523733032 | -0.644598523733034 | -0.644598523733034
  Lowest 0-occ =   0.427012687206694 |  0.427012687206695 |  0.427012687206695
  1-occ =         -0.231807320700329 | -0.231807320700333 | -0.231807320700333
  1-occ =         -0.231807320700328 | -0.231807320700335 | -0.231807320700335
  1-occ =          0.217559452978471 |  0.217559452978487 |  0.217559452978487
  Roothaan mo_energy =
[-1.9202824  -1.09901258 -0.65237771 -0.65237771 -0.64459852 -0.23180732
 -0.23180732  0.21755945  0.42701269  0.42701269  0.45295983  0.46172469
  0.51995684  0.51995684  0.69506901  1.02483507  1.05793315  1.05793315
  1.24442332  1.24442332  1.43994809  1.43994809  1.63780814  1.65535946
  1.7727215   1.7727215   2.01340908  2.01340908  2.31213649  2.31213649
  2.40397857  2.6973253   3.17143888  3.17143888  3.21536846  3.21536846
  3.3822047   3.3822047   3.62427256  3.62427256  3.77964103  4.05327207
  4.07185117  4.07185117  4.21111782  4.21111782  4.23272437  4.23272437
  4.32681093  4.32681093  4.496331    4.496331    4.60822244  4.74197395
  5.24618179  5.47597215  5.47597215  6.8099455   7.00471339  7.00471339
  7.2062376   7.2062376   7.39336368  8.22953048  8.22953048  8.34709913
  8.34709913  8.62859613  8.71545575  8.71545575  8.87553604  8.87553604
  8.90557341  8.90557341  9.16535878  9.35374634  9.35374634 10.53415588
 10.53415588 10.65001473 10.77903439 10.77903439 11.61328463 11.61328463
 11.72561836 11.72561836 11.76711988 11.76711988 12.07217257 12.07217257
 12.31119148 12.31119148 12.35725928 12.41224688 12.51717675 12.51717675
 12.8244383  12.8244383  12.88103987 12.88103987 13.02642935 13.02642935
 14.11146429 14.8150553  14.8150553  16.38106466 32.68384649 32.83595705]
E1 = -86.90150689126361  Ecoul = 39.98269926388003
cycle= 1 E= -31.14470843626  delta_E= 0.0829  |g|= 0.219  |ddm|= 24.6
    CPU time for cycle= 1     93.86 sec, wall time      0.81 sec
  HOMO = 0.424644477940899  LUMO = 0.667046801110736
                  Roothaan           | alpha              | beta
  Highest 2-occ = -0.397604862874482 | -0.478309701529996 | -0.280727313882885
  Lowest 0-occ =   0.667046801110736 |  0.646904055975016 |  0.687189546246454
  1-occ =         0.0945842110434586 | -0.218057442383571 |  0.416541730733492
  1-occ =         0.0945842110434605 | -0.218057442383575 |  0.416541730733489
  1-occ =          0.424644477940899 |  0.247484053815706 |  0.581387296363125
  Roothaan mo_energy =
[-1.3611486  -0.80164294 -0.42368297 -0.39760486 -0.39760486  0.09458421
  0.09458421  0.42464448  0.6670468   0.6670468   0.70002334  0.7670836
  0.7670836   0.81911564  0.98326403  1.29702073  1.34254577  1.34254577
  1.55647942  1.55647942  1.7350102   1.7350102   1.96898893  1.97268729
  2.08878081  2.08878081  2.32287437  2.32287437  2.61458783  2.61458783
  2.71661583  3.02373776  3.4831753   3.4831753   3.52050499  3.52050499
  3.69589762  3.69589762  3.93716627  3.93716627  4.12198049  4.39213176
  4.40802484  4.40802484  4.54098     4.54098     4.58370453  4.58370453
  4.66083225  4.66083225  4.8477452   4.8477452   4.95928834  5.08953589
  5.59572254  5.814942    5.814942    7.17990853  7.36397971  7.36397971
  7.56388416  7.56388416  7.7586835   8.56774479  8.56774479  8.68753485
  8.68753485  8.98634732  9.05228643  9.05228643  9.21348082  9.21348082
  9.23539773  9.23539773  9.48647808  9.69391014  9.69391014 10.8719886
 10.8719886  11.0290417  11.14349472 11.14349472 11.97522687 11.97522687
 12.09102991 12.09102991 12.13250839 12.13250839 12.44840078 12.44840078
 12.67764676 12.67764676 12.70678225 12.81472231 12.87984323 12.87984323
 13.19992724 13.19992724 13.27079455 13.27079455 13.40043199 13.40043199
 14.47332469 15.18566836 15.18566836 16.75331795 33.08004716 33.23453874]
E1 = -86.6574246383681  Ecoul = 39.721800789520714
cycle= 2 E= -31.1615246577238  delta_E= -0.0168  |g|= 0.0489  |ddm|= 4.65
    CPU time for cycle= 2    123.40 sec, wall time      0.98 sec
  HOMO = 0.40835369720202  LUMO = 0.660721972592233
                  Roothaan           | alpha              | beta
  Highest 2-occ = -0.416509887715607 | -0.495085854138212 |  -0.29795319353962
  Lowest 0-occ =   0.660721972592233 |  0.639849518278631 |   0.68129966642812
  1-occ =         0.0739100454547711 | -0.247556329355059 |  0.397599145274514
  1-occ =         0.0739100454547865 | -0.247556329355054 |  0.397599145274517
  1-occ =           0.40835369720202 |   0.24364358065971 |  0.564855885321256
  Roothaan mo_energy =
[-1.37541651 -0.82487213 -0.44636138 -0.41650989 -0.41650989  0.07391005
  0.07391005  0.4083537   0.66072197  0.66072197  0.69022415  0.75643398
  0.75643398  0.82387039  0.97203951  1.28715431  1.33278686  1.33278686
  1.54231057  1.54231057  1.722902    1.722902    1.95332159  1.9549338
  2.0706571   2.0706571   2.3056879   2.3056879   2.60031656  2.60031656
  2.70413868  3.00141222  3.47054993  3.47054993  3.50846197  3.50846197
  3.68247129  3.68247129  3.92275774  3.92275774  4.10011173  4.36991444
  4.38632894  4.38632894  4.5228535   4.5228535   4.55782977  4.55782977
  4.63935529  4.63935529  4.82108357  4.82108357  4.93208206  5.0685997
  5.57357827  5.79476127  5.79476127  7.14546204  7.33461086  7.33461086
  7.5348016   7.5348016   7.72825524  8.54908267  8.54908267  8.66748629
  8.66748629  8.96193322  9.0336026   9.0336026   9.19445037  9.19445037
  9.22076526  9.22076526  9.47506752  9.6740422   9.6740422  10.85369994
 10.85369994 10.99262046 11.11365659 11.11365659 11.94881348 11.94881348
 12.06214735 12.06214735 12.1047251  12.1047251  12.41482049 12.41482049
 12.64846284 12.64846284 12.68496532 12.76927273 12.85143597 12.85143597
 13.1672997  13.1672997  13.23112508 13.23112508 13.36854606 13.36854606
 14.44573954 15.15459938 15.15459938 16.72242079 33.037968   33.19137435]
E1 = -86.62672075970752  Ecoul = 39.68915779553902
cycle= 3 E= -31.1634637730449  delta_E= -0.00194  |g|= 0.019  |ddm|=  1.6
    CPU time for cycle= 3     93.31 sec, wall time      0.75 sec
  HOMO = 0.402423638311874  LUMO = 0.656747435202311
                  Roothaan           | alpha              | beta
  Highest 2-occ = -0.423485491566981 | -0.493811636078752 | -0.301339762559988
  Lowest 0-occ =   0.656747435202311 |  0.637227507585626 |  0.678858022283427
  1-occ =         0.0694552410850197 |  -0.25199536162325 |  0.396109389748319
  1-occ =         0.0694552410850217 | -0.251995361623254 |   0.39610938974832
  1-occ =          0.402423638311874 |  0.246194538917771 |  0.558169319880662
  Roothaan mo_energy =
[-1.38221683 -0.82824348 -0.44940113 -0.42348549 -0.42348549  0.06945524
  0.06945524  0.40242364  0.65674744  0.65674744  0.68647514  0.75156742
  0.75156742  0.83489376  0.96691307  1.28416296  1.32715145  1.32715145
  1.53735181  1.53735181  1.71811304  1.71811304  1.94932262  1.95222179
  2.06645733  2.06645733  2.2999169   2.2999169   2.59419747  2.59419747
  2.69855531  2.99781533  3.46381597  3.46381597  3.50199724  3.50199724
  3.67499265  3.67499265  3.9167178   3.9167178   4.09435525  4.36413167
  4.38044466  4.38044466  4.5167165   4.5167165   4.55300128  4.55300128
  4.63362587  4.63362587  4.81541283  4.81541283  4.92720254  5.06320653
  5.56786592  5.78865324  5.78865324  7.14158353  7.33029988  7.33029988
  7.53047471  7.53047471  7.72415195  8.54189803  8.54189803  8.66086281
  8.66086281  8.95673277  9.02753869  9.02753869  9.18844735  9.18844735
  9.21320703  9.21320703  9.46721373  9.66739171  9.66739171 10.84651195
 10.84651195 10.98728736 11.10786789 11.10786789 11.94418865 11.94418865
 12.05675307 12.05675307 12.1003176  12.1003176  12.41001774 12.41001774
 12.64262794 12.64262794 12.67824265 12.76551377 12.84530322 12.84530322
 13.1636757  13.1636757  13.22732205 13.22732205 13.36477034 13.36477034
 14.43960641 15.14935021 15.14935021 16.71682098 33.03625543 33.18986895]
E1 = -86.56169805259772  Ecoul = 39.62344669599564
cycle= 4 E= -31.1641521654785  delta_E= -0.000688  |g|= 0.00932  |ddm|= 1.76
    CPU time for cycle= 4     90.79 sec, wall time      0.73 sec
  HOMO = 0.400339251833204  LUMO = 0.654171670439747
                  Roothaan           | alpha              | beta
  Highest 2-occ = -0.429908769996506 | -0.496729554558042 | -0.307493870666548
  Lowest 0-occ =   0.654171670439747 |  0.634645903300086 |  0.676193093170371
  1-occ =         0.0632073673784561 | -0.257758846475237 |  0.390386333907146
  1-occ =         0.0632073673784589 | -0.257758846475232 |  0.390386333907148
  1-occ =          0.400339251833204 |  0.247612259883071 |  0.554001528034713
  Roothaan mo_energy =
[-1.38942878 -0.83412346 -0.45432148 -0.42990877 -0.42990877  0.06320737
  0.06320737  0.40033925  0.65417167  0.65417167  0.68426968  0.75003048
  0.75003048  0.83536853  0.96300261  1.28173549  1.32324497  1.32324497
  1.53333504  1.53333504  1.71458967  1.71458967  1.94613213  1.9488253
  2.06343532  2.06343532  2.29488528  2.29488528  2.58965087  2.58965087
  2.69368627  2.99432752  3.4587646   3.4587646   3.49734645  3.49734645
  3.66868878  3.66868878  3.91228314  3.91228314  4.0881104   4.35968754
  4.37465509  4.37465509  4.51085298  4.51085298  4.54821719  4.54821719
  4.62925781  4.62925781  4.81045513  4.81045513  4.92154722  5.05685717
  5.56195245  5.78335826  5.78335826  7.13608732  7.32305524  7.32305524
  7.52319681  7.52319681  7.7172899   8.53562631  8.53562631  8.65503596
  8.65503596  8.94922028  9.02195155  9.02195155  9.18288321  9.18288321
  9.20608417  9.20608417  9.45962154  9.66146031  9.66146031 10.83987171
 10.83987171 10.98156109 11.10153269 11.10153269 11.93729953 11.93729953
 12.0496259  12.0496259  12.09359574 12.09359574 12.40348457 12.40348457
 12.63520436 12.63520436 12.66963432 12.75920405 12.83766951 12.83766951
 13.15598005 13.15598005 13.22014358 13.22014358 13.35703216 13.35703216
 14.43119715 15.14150281 15.14150281 16.70822868 33.02664406 33.18044614]
E1 = -86.5580172884661  Ecoul = 39.61963306912297
cycle= 5 E= -31.1642850282195  delta_E= -0.000133  |g|= 0.00397  |ddm|= 0.942
    CPU time for cycle= 5     84.46 sec, wall time      0.67 sec
  HOMO = 0.401317780418702  LUMO = 0.65461560584781
                  Roothaan           | alpha              | beta
  Highest 2-occ = -0.428125518346572 | -0.496107082247128 |     -0.30849817755
  Lowest 0-occ =    0.65461560584781 |  0.633916284230729 |  0.675522575853425
  1-occ =         0.0651896938910165 | -0.258033742752873 |  0.389471109826867
  1-occ =         0.0651896938910174 | -0.258033742752875 |  0.389471109826858
  1-occ =          0.401317780418702 |  0.248809372510142 |  0.553535337307056
  Roothaan mo_energy =
[-1.38723691 -0.832663   -0.45246099 -0.42812552 -0.42812552  0.06518969
  0.06518969  0.40131778  0.65461561  0.65461561  0.68457707  0.75037683
  0.75037683  0.83690228  0.96391943  1.2822311   1.32422459  1.32422459
  1.53440933  1.53440933  1.71542503  1.71542503  1.94703677  1.94999592
  2.06432031  2.06432031  2.29639166  2.29639166  2.59092677  2.59092677
  2.69513049  2.99534018  3.46009355  3.46009355  3.49856267  3.49856267
  3.67045309  3.67045309  3.91346457  3.91346457  4.09022925  4.36096307
  4.37654997  4.37654997  4.51275081  4.51275081  4.54982998  4.54982998
  4.63052258  4.63052258  4.81207165  4.81207165  4.92346598  5.05900994
  5.56387783  5.78494164  5.78494164  7.13820199  7.32578511  7.32578511
  7.52595158  7.52595158  7.71987631  8.53760838  8.53760838  8.6569332
  8.6569332   8.95201721  9.02378052  9.02378052  9.18471376  9.18471376
  9.20829874  9.20829874  9.46190774  9.66339356  9.66339356 10.84198614
 10.84198614 10.98381877 11.10386663 11.10386663 11.93993701 11.93993701
 12.05232253 12.05232253 12.09621605 12.09621605 12.40610063 12.40610063
 12.63793534 12.63793534 12.67250672 12.76208664 12.84040762 12.84040762
 13.15909336 13.15909336 13.22322951 13.22322951 13.36012836 13.36012836
 14.43415228 15.14447208 15.14447208 16.71142527 33.03067094 33.18445517]
E1 = -86.54231970991009  Ecoul = 39.60392788934594
cycle= 6 E= -31.1642926294405  delta_E= -7.6e-06  |g|= 0.00157  |ddm|= 0.188
    CPU time for cycle= 6     89.25 sec, wall time      0.71 sec
  HOMO = 0.400753281883181  LUMO = 0.654204636994397
                  Roothaan           | alpha              | beta
  Highest 2-occ = -0.429093947146319 | -0.497302161950305 | -0.309878689185351
  Lowest 0-occ =   0.654204636994397 |  0.633564146124103 |  0.675115730046035
  1-occ =         0.0643350543151919 | -0.259109010208029 |  0.388116175073026
  1-occ =         0.0643350543151947 | -0.259109010208029 |  0.388116175073026
  1-occ =          0.400753281883181 |  0.248716742219503 |  0.552776847472197
  Roothaan mo_energy =
[-1.38833782 -0.83353607 -0.45325524 -0.42909395 -0.42909395  0.06433505
  0.06433505  0.40075328  0.65420464  0.65420464  0.68418186  0.75000949
  0.75000949  0.83734103  0.96328145  1.28185169  1.32357036  1.32357036
  1.5337554   1.5337554   1.71484927  1.71484927  1.94651161  1.9494747
  2.0638185   2.0638185   2.29562773  2.29562773  2.59021626  2.59021626
  2.69435391  2.99479006  3.45925796  3.45925796  3.49780071  3.49780071
  3.6694291   3.6694291   3.91274186  3.91274186  4.08928302  4.36024709
  4.37567837  4.37567837  4.51184422  4.51184422  4.5490986   4.5490986
  4.62982122  4.62982122  4.81130497  4.81130497  4.92263342  5.05804933
  5.56296082  5.78409039  5.78409039  7.13742689  7.32478956  7.32478956
  7.52495624  7.52495624  7.71892087  8.5366033   8.5366033   8.65601144
  8.65601144  8.95093555  9.02290916  9.02290916  9.18384722  9.18384722
  9.20716332  9.20716332  9.46069201  9.66245908  9.66245908 10.84093576
 10.84093576 10.98299525 11.10293022 11.10293022 11.93894935 11.93894935
 12.05129125 12.05129125 12.09525879 12.09525879 12.40517586 12.40517586
 12.63684775 12.63684775 12.67121558 12.76126846 12.83928458 12.83928458
 13.15805703 13.15805703 13.22228275 13.22228275 13.35907763 13.35907763
 14.43292397 15.14335842 15.14335842 16.710204   33.02948833 33.18330708]
E1 = -86.54081792505613  Ecoul = 39.602423564146775
cycle= 7 E= -31.1642951697857  delta_E= -2.54e-06  |g|= 9.31e-05  |ddm|= 0.157
    CPU time for cycle= 7     71.72 sec, wall time      0.58 sec
  HOMO = 0.400829125589403  LUMO = 0.654217358458694
                  Roothaan           | alpha              | beta
  Highest 2-occ = -0.429065455095126 | -0.497293833390889 | -0.310091081732322
  Lowest 0-occ =   0.654217358458694 |  0.633432713491658 |  0.674997379766279
  1-occ =         0.0643625366557633 | -0.259226398201556 |  0.387947235284034
  1-occ =         0.0643625366557645 | -0.259226398201553 |  0.387947235284036
  1-occ =          0.400829125589403 |   0.24888854800371 |  0.552738080095463
  Roothaan mo_energy =
[-1.38831576 -0.8335125  -0.45325322 -0.42906546 -0.42906546  0.06436254
  0.06436254  0.40082913  0.65421736  0.65421736  0.68418717  0.75002665
  0.75002665  0.83726037  0.96328796  1.28185587  1.32358304  1.32358304
  1.53377162  1.53377162  1.71486324  1.71486324  1.94652384  1.94948061
  2.06383059  2.06383059  2.29564655  2.29564655  2.59023128  2.59023128
  2.69436856  2.99480445  3.45927449  3.45927449  3.49781543  3.49781543
  3.66944599  3.66944599  3.91275684  3.91275684  4.08930119  4.36026971
  4.37569872  4.37569872  4.51185956  4.51185956  4.54912006  4.54912006
  4.62984246  4.62984246  4.81133164  4.81133164  4.92265712  5.05806623
  5.56298293  5.78410849  5.78410849  7.13745267  7.32480847  7.32480847
  7.52497556  7.52497556  7.71894271  8.53662504  8.53662504  8.65603137
  8.65603137  8.95095711  9.02292301  9.02292301  9.18386105  9.18386105
  9.20718222  9.20718222  9.46070849  9.66247783  9.66247783 10.8409549
 10.8409549  10.98303287 11.10296049 11.10296049 11.93896357 11.93896357
 12.05131484 12.05131484 12.09527412 12.09527412 12.40520409 12.40520409
 12.63687493 12.63687493 12.67123491 12.76131203 12.83931044 12.83931044
 13.15807438 13.15807438 13.22231617 13.22231617 13.35909434 13.35909434
 14.43295008 15.14338431 15.14338431 16.71023489 33.02950872 33.18332856]
E1 = -86.54063758837937  Ecoul = 39.602243223657766
cycle= 8 E= -31.164295173598  delta_E= -3.81e-09  |g|= 2.62e-05  |ddm|= 0.00282
    CPU time for cycle= 8    110.18 sec, wall time      0.87 sec
  HOMO = 0.400808951592035  LUMO = 0.654210552346202
                  Roothaan           | alpha              | beta
  Highest 2-occ = -0.429081138350632 |  -0.49731504375023 | -0.310104265219414
  Lowest 0-occ =   0.654210552346202 |  0.633430365277585 |  0.674994079508897
  1-occ =         0.0643482918209376 | -0.259235803048957 |  0.387934651281845
  1-occ =         0.0643482918209564 | -0.259235803048953 |   0.38793465128185
  1-occ =          0.400808951592035 |  0.248887658453987 |  0.552730485155392
  Roothaan mo_energy =
[-1.38833305 -0.83352761 -0.45326673 -0.42908114 -0.42908114  0.06434829
  0.06434829  0.40080895  0.65421055  0.65421055  0.68418115  0.75002079
  0.75002079  0.83728078  0.96327824  1.28185005  1.32357249  1.32357249
  1.53376118  1.53376118  1.71485379  1.71485379  1.94651598  1.94947329
  2.0638232   2.0638232   2.29563447  2.29563447  2.59022038  2.59022038
  2.69435636  2.99479597  3.45926124  3.45926124  3.49780313  3.49780313
  3.66943022  3.66943022  3.91274518  3.91274518  4.08928686  4.3602583
  4.37568497  4.37568497  4.5118455   4.5118455   4.54910876  4.54910876
  4.6298312   4.6298312   4.81131945  4.81131945  4.92264411  5.05805165
  5.5629689   5.78409533  5.78409533  7.13744067  7.32479347  7.32479347
  7.52496048  7.52496048  7.71892829  8.53660942  8.53660942  8.65601689
  8.65601689  8.95094079  9.02290928  9.02290928  9.1838474   9.1838474
  9.20716488  9.20716488  9.46069015  9.66246316  9.66246316 10.84093867
 10.84093867 10.98301969 11.10294589 11.10294589 11.93894851 11.93894851
 12.051299   12.051299   12.0952595  12.0952595  12.40518972 12.40518972
 12.63685837 12.63685837 12.6712157  12.761299   12.8392933  12.8392933
 13.15805884 13.15805884 13.22230156 13.22230156 13.35907861 13.35907861
 14.43293166 15.14336744 15.14336744 16.71021659 33.02949161 33.18331192]
E1 = -86.54065327950752  Ecoul = 39.60225891448019
cycle= 9 E= -31.1642951739037  delta_E= -3.06e-10  |g|= 4.03e-06  |ddm|= 0.00157
    CPU time for cycle= 9     95.16 sec, wall time      0.76 sec
  HOMO = 0.40081068259043  LUMO = 0.654211441157114
                  Roothaan           | alpha              | beta
  Highest 2-occ = -0.429078833337392 | -0.497312394615562 | -0.310104166495701
  Lowest 0-occ =   0.654211441157114 |  0.633429492863612 |  0.674993389450613
  1-occ =         0.0643504562100476 | -0.259234535714298 |  0.387935226621701
  1-occ =         0.0643504562100503 | -0.259234535714295 |  0.387935226621702
  1-occ =           0.40081068259043 |  0.248890386288043 |  0.552731262052485
  Roothaan mo_energy =
[-1.38833037 -0.83352554 -0.45326484 -0.42907883 -0.42907883  0.06435046
  0.06435046  0.40081068  0.65421144  0.65421144  0.68418184  0.75002153
  0.75002153  0.83728036  0.96327973  1.28185087  1.32357405  1.32357405
  1.53376274  1.53376274  1.71485513  1.71485513  1.94651711  1.94947459
  2.06382439  2.06382439  2.29563635  2.29563635  2.59022212  2.59022212
  2.69435827  2.99479722  3.45926322  3.45926322  3.49780497  3.49780497
  3.6694326   3.6694326   3.91274693  3.91274693  4.0892892   4.36026001
  4.37568717  4.37568717  4.51184777  4.51184777  4.54911058  4.54911058
  4.62983291  4.62983291  4.81132136  4.81132136  4.92264618  5.05805404
  5.56297115  5.78409737  5.78409737  7.13744268  7.32479606  7.32479606
  7.52496309  7.52496309  7.71893075  8.53661189  8.53661189  8.65601921
  8.65601921  8.95094359  9.02291151  9.02291151  9.18384962  9.18384962
  9.20716765  9.20716765  9.46069307  9.66246551  9.66246551 10.84094126
 10.84094126 10.98302191 11.10294832 11.10294832 11.93895111 11.93895111
 12.0513017  12.0513017  12.09526205 12.09526205 12.40519221 12.40519221
 12.63686115 12.63686115 12.67121884 12.76130138 12.83929613 12.83929613
 13.15806162 13.15806162 13.22230421 13.22230421 13.35908141 13.35908141
 14.4329347  15.14337031 15.14337031 16.71021971 33.0294948  33.18331505]
E1 = -86.54064796922198  Ecoul = 39.602253604183204
Extra cycle  E= -31.1642951739151  delta_E= -1.14e-11  |g|= 1.42e-06  |ddm|= 0.000131
    CPU time for scf_cycle   1031.99 sec, wall time      8.53 sec
    CPU time for SCF   1032.02 sec, wall time      8.53 sec
converged SCF energy = -31.1642951739151
