#INFO: **** input file is /home/nkousuke/lustre/toBeSync/turboRVB/05turbo-genius-development/turbogenius_paper/04data/sanity_checks/02pyscf_prep_LDA_via_trexio/00open_boundary/results/H2O/pyscf-LDA-workflow/run.py ****

from pyscf_wrapper import Pyscf_wrapper

# input variables
pyscf_chkfile="pyscf.chk"
structure_file="H2O.xyz"

# input variables
omp_num_threads=128
charge=0
spin=0
basis="ccecp-ccpvqz"
ecp="ccecp"
scf_method="DFT"
dft_xc="LDA_X,LDA_C_PZ"
solver_newton=False
MP2_flag=False
CCSD_flag=False
pyscf_output="out.pyscf"
twist_average=False
exp_to_discard=0.1
kpt=[0.0, 0.0, 0.0]
kpt_grid=[1, 1, 1]
smearing_method="fermi"
smearing_sigma=0.0

pyscf_calc=Pyscf_wrapper(
                        structure_file=structure_file,
                        chkfile=pyscf_chkfile,
                        )

pyscf_calc.run_pyscf(
                  omp_num_threads=omp_num_threads,
                  charge=charge,
                  spin=spin,
                  basis=basis,
                  ecp=ecp,
                  scf_method=scf_method,
                  dft_xc=dft_xc,
                  solver_newton=solver_newton,
                  MP2_flag=MP2_flag,
                  CCSD_flag=CCSD_flag,
                  pyscf_output=pyscf_output,
                  twist_average=twist_average,
                  exp_to_discard=exp_to_discard,
                  kpt=kpt,
                  kpt_grid=kpt_grid,
                  smearing_method=smearing_method,
                  smearing_sigma=smearing_sigma
                  )
                #INFO: ******************** input file end ********************


System: uname_result(system='Linux', node='spcc-109', release='5.4.0-66-generic', version='#74-Ubuntu SMP Wed Jan 27 22:54:38 UTC 2021', machine='x86_64', processor='x86_64')  Threads 128
Python 3.7.3 (default, Mar 27 2019, 22:11:17) 
[GCC 7.3.0]
numpy 1.20.1  scipy 1.7.3
Date: Thu Dec 22 07:20:59 2022
PySCF version 2.0.1
PySCF path  /home/nkousuke/application/anaconda3/lib/python3.7/site-packages/pyscf

[CONFIG] conf_file /home/nkousuke/.pyscf_conf.py
[INPUT] verbose = 5
[INPUT] max_memory = 507884.6015625 
[INPUT] num. atoms = 3
[INPUT] num. electrons = 8
[INPUT] charge = 0
[INPUT] spin (= nelec alpha-beta = 2S) = 0
[INPUT] symmetry False subgroup None
[INPUT] Mole.unit = A
[INPUT]  1 O      0.000000000000   0.000000000000   0.117250000000 AA    0.000000000000   0.000000000000   0.221570388105 Bohr
[INPUT]  2 H      0.000000000000   0.757160000000  -0.469010000000 AA    0.000000000000   1.430825032476  -0.886300449682 Bohr
[INPUT]  3 H      0.000000000000  -0.757160000000  -0.469010000000 AA    0.000000000000  -1.430825032476  -0.886300449682 Bohr
[INPUT] ---------------- BASIS SET ---------------- 
[INPUT] l, kappa, [nprim/nctr], expnt,             c_1 c_2 ...
[INPUT] O
[INPUT] 0    0    [9    /1   ]  54.775216         -0.0012444
                                25.616801         0.010733
                                11.980245         0.0018889
                                6.992317          -0.1742537
                                2.620277          0.0017622
                                1.225429          0.3161846
                                0.577797          0.4512023
                                0.268022          0.3121534
                                0.125346          0.0511167
[INPUT] 0    0    [1    /1   ]  1.351771             1
[INPUT] 0    0    [1    /1   ]  0.843157             1
[INPUT] 0    0    [1    /1   ]  0.22438              1
[INPUT] 1    0    [9    /1   ]  22.217266         0.0104866
                                10.74755          0.0366435
                                5.315785          0.0803674
                                2.660761          0.162701
                                1.331816          0.2377791
                                0.678626          0.2811422
                                0.333673          0.2643189
                                0.167017          0.1466014
                                0.083598          0.0458145
[INPUT] 1    0    [1    /1   ]  1.106737             1
[INPUT] 1    0    [1    /1   ]  0.452364             1
[INPUT] 1    0    [1    /1   ]  0.148562             1
[INPUT] 2    0    [1    /1   ]  4.008867             1
[INPUT] 2    0    [1    /1   ]  1.344331             1
[INPUT] 2    0    [1    /1   ]  0.455711             1
[INPUT] 3    0    [1    /1   ]  2.763115             1
[INPUT] 3    0    [1    /1   ]  0.876289             1
[INPUT] 4    0    [1    /1   ]  1.759081             1
[INPUT] H
[INPUT] 0    0    [8    /1   ]  23.843185         0.0041149
                                10.212443         0.0104644
                                4.374164          0.0280111
                                1.873529          0.0758862
                                0.802465          0.1821062
                                0.343709          0.3485214
                                0.147217          0.3782313
                                0.063055          0.1164241
[INPUT] 0    0    [1    /1   ]  0.081856             1
[INPUT] 0    0    [1    /1   ]  0.233254             1
[INPUT] 0    0    [1    /1   ]  0.664673             1
[INPUT] 1    0    [1    /1   ]  0.284469             1
[INPUT] 1    0    [1    /1   ]  0.847159             1
[INPUT] 1    0    [1    /1   ]  2.522868             1
[INPUT] 2    0    [1    /1   ]  0.665279             1
[INPUT] 2    0    [1    /1   ]  2.048739             1
[INPUT] 3    0    [1    /1   ]  1.42146              1

nuclear repulsion = 6.980762741132
number of shells = 34
number of NR pGTOs = 160
number of NR cGTOs = 114
basis = ccecp-ccpvqz
ecp = ccecp
CPU time:         5.03


******** <class 'pyscf.df.df_jk.density_fit.<locals>.DFHF'> ********
method = DFHF-RKS-RHF
initial guess = minao
damping factor = 0
level_shift factor = 0
DIIS = <class 'pyscf.scf.diis.CDIIS'>
diis_start_cycle = 1
diis_space = 8
SCF conv_tol = 1e-09
SCF conv_tol_grad = None
SCF max_cycles = 200
direct_scf = True
direct_scf_tol = 1e-13
chkfile to save SCF result = pyscf.chk
max_memory 507884 MB (current use 106 MB)
XC library pyscf.dft.libxc version 5.1.7
    S. Lehtola, C. Steigemann, M. J. Oliveira, and M. A. Marques, SoftwareX 7, 1 (2018)
XC functionals = LDA_X,LDA_C_PZ
    P. A. M. Dirac, Math. Proc. Cambridge Philos. Soc. 26, 376 (1930)
    F. Bloch, Z. Phys. 57, 545 (1929)
    J. P. Perdew and A. Zunger, Phys. Rev. B 23, 5048 (1981)
radial grids: 
    Treutler-Ahlrichs [JCP 102, 346 (1995); DOI:10.1063/1.469408] (M4) radial grids
    
becke partition: Becke, JCP 88, 2547 (1988); DOI:10.1063/1.454033
pruning grids: <function nwchem_prune at 0x152471323730>
grids dens level: 3
symmetrized grids: False
atomic radii adjust function: <function treutler_atomic_radii_adjust at 0x152471323620>
small_rho_cutoff = 1e-07
Set gradient conv threshold to 3.16228e-05
atom O rad-grids = 75, ang-grids = [ 50  50  50  50  50  50  50  50  50  50  50  50  50  50  50  50  50  50
  50  50  50  50  86  86  86  86  86  86  86  86  86 266 266 266 266 266
 266 266 302 302 302 302 302 302 302 302 302 302 302 302 302 302 302 302
 302 302 302 266 266 266 266 266 266 266 266 266 266 266 266 266 266 266
 266 266 266]
atom H rad-grids = 50, ang-grids = [ 50  50  50  50  50  50  50  50  50  50  50  50  50  50  86  86  86  86
 266 266 266 266 302 302 302 302 302 302 302 302 302 302 302 302 302 266
 266 266 266 266 266 266 266 266 266 266 266 266 266 266]
tot grids = 34310
Drop grids 2847
    CPU time for setting up grids     35.80 sec, wall time      0.30 sec
nelec by numeric integration = 7.999875377498537
    CPU time for vxc     31.72 sec, wall time      0.25 sec
Even tempered Gaussians are generated as DF auxbasis for  O H
  ETB auxbasis for O  [[0, [64.177152, 1]], [0, [32.088576, 1]], [0, [16.044288, 1]], [0, [8.022144, 1]], [0, [4.011072, 1]], [0, [2.005536, 1]], [0, [1.002768, 1]], [0, [0.501384, 1]], [0, [0.250692, 1]], [1, [52.41108427692326, 1]], [1, [26.20554213846163, 1]], [1, [13.102771069230815, 1]], [1, [6.551385534615408, 1]], [1, [3.275692767307704, 1]], [1, [1.637846383653852, 1]], [1, [0.818923191826926, 1]], [1, [0.409461595913463, 1]], [1, [0.2047307979567315, 1]], [2, [42.802176, 1]], [2, [21.401088, 1]], [2, [10.700544, 1]], [2, [5.350272, 1]], [2, [2.675136, 1]], [2, [1.337568, 1]], [2, [0.668784, 1]], [2, [0.334392, 1]], [2, [0.167196, 1]], [3, [12.491732442583295, 1]], [3, [6.245866221291648, 1]], [3, [3.122933110645824, 1]], [3, [1.561466555322912, 1]], [3, [0.780733277661456, 1]], [3, [0.390366638830728, 1]], [4, [7.291376, 1]], [4, [3.645688, 1]], [4, [1.822844, 1]], [4, [0.911422, 1]]]
  ETB auxbasis for H  [[0, [32.28416, 1]], [0, [16.14208, 1]], [0, [8.07104, 1]], [0, [4.03552, 1]], [0, [2.01776, 1]], [0, [1.00888, 1]], [0, [0.50444, 1]], [0, [0.25222, 1]], [0, [0.12611, 1]], [1, [8.571507550502421, 1]], [1, [4.2857537752512105, 1]], [1, [2.1428768876256052, 1]], [1, [1.0714384438128026, 1]], [1, [0.5357192219064013, 1]], [1, [0.26785961095320066, 1]], [2, [4.551504, 1]], [2, [2.275752, 1]], [2, [1.137876, 1]], [2, [0.568938, 1]]]
num shells = 75, num cGTOs = 253
    CPU time for df-vj     33.29 sec, wall time      0.26 sec
E1 = -40.322362827635544  Ecoul = 20.346051608521716  Exc = -3.961351813538675
init E= -16.9569002915205
cond(S) = 24371.085650521523
    CPU time for initialize scf    207.22 sec, wall time      1.78 sec
  HOMO = -0.412607847617286  LUMO = -0.0304655531048339
  mo_energy =
[-1.06303956e+00 -5.86969247e-01 -4.82906183e-01 -4.12607848e-01
 -3.04655531e-02  3.61145791e-02  2.00000307e-01  2.21519629e-01
  2.49284619e-01  2.60591143e-01  3.43215082e-01  3.88469668e-01
  4.38568928e-01  4.94156983e-01  6.90929456e-01  7.14203976e-01
  8.16788625e-01  8.87618875e-01  9.71583198e-01  1.00870453e+00
  1.15111016e+00  1.16334268e+00  1.20591781e+00  1.26840925e+00
  1.42776565e+00  1.62300591e+00  1.74867790e+00  1.86310381e+00
  1.96918319e+00  2.04368574e+00  2.10989454e+00  2.16718959e+00
  2.16774806e+00  2.22655964e+00  2.29014029e+00  2.30303062e+00
  2.42487046e+00  2.48504900e+00  2.51769114e+00  2.54791630e+00
  2.83109657e+00  2.92632409e+00  3.00719464e+00  3.06543885e+00
  3.48746733e+00  3.52327318e+00  3.62627325e+00  3.69719913e+00
  3.71573984e+00  3.88401741e+00  3.90290760e+00  4.23724420e+00
  4.24087348e+00  4.25581988e+00  4.43544946e+00  4.88208323e+00
  5.21861965e+00  5.64396304e+00  5.79395196e+00  5.91330673e+00
  6.00282608e+00  6.04892750e+00  6.25140743e+00  6.26208117e+00
  6.30106740e+00  6.50506919e+00  6.66905429e+00  6.95072658e+00
  6.96060883e+00  7.17432550e+00  7.20165357e+00  7.21842313e+00
  7.33956638e+00  7.42332577e+00  7.49805523e+00  7.51201911e+00
  7.56958014e+00  7.61535291e+00  7.61982029e+00  7.70426912e+00
  7.75832296e+00  7.84586721e+00  8.01996634e+00  8.18177975e+00
  8.31374920e+00  8.67096442e+00  8.71427922e+00  8.85836435e+00
  8.89541116e+00  9.06492149e+00  9.31979248e+00  9.49804370e+00
  9.73964751e+00  9.80039746e+00  1.02667511e+01  1.02961733e+01
  1.04517782e+01  1.07473730e+01  1.10412519e+01  1.12624340e+01
  1.13849704e+01  1.16693483e+01  1.16861689e+01  1.17414501e+01
  1.18403036e+01  1.28969691e+01  1.29756995e+01  1.36472067e+01
  1.36488151e+01  1.41165424e+01  1.41902062e+01  1.56166602e+01
  1.64220678e+01  3.20932879e+01]
nelec by numeric integration = 8.000000253842872
    CPU time for vxc     35.46 sec, wall time      0.28 sec
    CPU time for df-vj      1.54 sec, wall time      0.01 sec
E1 = -42.69492093756967  Ecoul = 23.107889432024194  Exc = -4.4196966348341045
cycle= 1 E= -17.0259653992476  delta_E= -0.0691  |g|= 0.829  |ddm|= 3.36
    CPU time for cycle= 1     74.20 sec, wall time      0.58 sec
  HOMO = -0.0768728235593903  LUMO = 0.0314009461897983
  mo_energy =
[-7.47921123e-01 -3.43255678e-01 -1.51784268e-01 -7.68728236e-02
  3.14009462e-02  9.90191560e-02  2.93188000e-01  2.93595690e-01
  3.53700565e-01  4.02143667e-01  4.43653324e-01  4.60028370e-01
  4.82433981e-01  5.53626580e-01  7.43666784e-01  8.44652452e-01
  9.00109162e-01  9.71045132e-01  1.04356534e+00  1.08674729e+00
  1.30383942e+00  1.31788852e+00  1.37857748e+00  1.41163105e+00
  1.59890757e+00  1.81553826e+00  1.90200357e+00  1.93714464e+00
  2.00844146e+00  2.08336116e+00  2.19467488e+00  2.21349313e+00
  2.23803086e+00  2.33086770e+00  2.38134284e+00  2.40091460e+00
  2.50082819e+00  2.60295558e+00  2.61212822e+00  2.66033478e+00
  2.95218089e+00  3.07167536e+00  3.13361492e+00  3.17059443e+00
  3.71679644e+00  3.74403539e+00  3.93564975e+00  3.96633590e+00
  4.00241801e+00  4.12692751e+00  4.20036012e+00  4.45319813e+00
  4.46766070e+00  4.48612051e+00  4.65713844e+00  5.08479700e+00
  5.35852521e+00  5.71452000e+00  5.91165426e+00  5.97974777e+00
  6.05413599e+00  6.40399403e+00  6.43554798e+00  6.47091189e+00
  6.48609887e+00  6.73000655e+00  6.78412804e+00  7.07364624e+00
  7.10927885e+00  7.23114547e+00  7.24360899e+00  7.40079622e+00
  7.42085838e+00  7.51377093e+00  7.55229433e+00  7.64152117e+00
  7.65486701e+00  7.74512436e+00  7.76869468e+00  7.77942613e+00
  7.84668356e+00  7.87709407e+00  8.16779228e+00  8.30483793e+00
  8.52095966e+00  8.79438184e+00  8.88615413e+00  9.05129451e+00
  9.05180123e+00  9.15644383e+00  9.59897828e+00  9.77996635e+00
  1.00583015e+01  1.00910565e+01  1.06029909e+01  1.06171713e+01
  1.07798893e+01  1.11185536e+01  1.13733825e+01  1.17229064e+01
  1.17390652e+01  1.20899901e+01  1.21202326e+01  1.21492096e+01
  1.22966475e+01  1.32183692e+01  1.34195968e+01  1.40370286e+01
  1.40956721e+01  1.45656241e+01  1.46268687e+01  1.59926459e+01
  1.68223866e+01  3.27771197e+01]
nelec by numeric integration = 8.00000052804618
    CPU time for vxc     28.93 sec, wall time      0.23 sec
    CPU time for df-vj      1.54 sec, wall time      0.01 sec
E1 = -38.019878320661675  Ecoul = 17.948352252187867  Exc = -3.5253216958963187
cycle= 2 E= -16.6160850232381  delta_E= 0.41  |g|= 1.64  |ddm|= 2.62
    CPU time for cycle= 2     70.02 sec, wall time      0.55 sec
  HOMO = -0.273497667195871  LUMO = -0.0112558847863859
  mo_energy =
[-9.46247699e-01 -4.92897744e-01 -3.47322180e-01 -2.73497667e-01
 -1.12558848e-02  5.87165020e-02  2.44160462e-01  2.46491374e-01
  2.80072899e-01  3.00224861e-01  3.82190529e-01  4.06347631e-01
  4.54507215e-01  5.17012038e-01  7.23354094e-01  7.51979127e-01
  8.43925287e-01  9.12103245e-01  9.98451993e-01  1.03586873e+00
  1.21431894e+00  1.22486532e+00  1.27586497e+00  1.31664635e+00
  1.49138157e+00  1.72122116e+00  1.77584687e+00  1.88836708e+00
  1.97854359e+00  2.05494089e+00  2.15273275e+00  2.17936368e+00
  2.18808411e+00  2.27030771e+00  2.30093193e+00  2.33402366e+00
  2.44467359e+00  2.52386889e+00  2.55089276e+00  2.58952175e+00
  2.87498527e+00  2.97386326e+00  3.06345433e+00  3.08585269e+00
  3.57319768e+00  3.60706436e+00  3.74450157e+00  3.81159526e+00
  3.81846666e+00  3.98653072e+00  3.99844714e+00  4.31728674e+00
  4.32448746e+00  4.33211638e+00  4.51656999e+00  4.95235831e+00
  5.26655796e+00  5.66308994e+00  5.83299946e+00  5.93076187e+00
  6.01314314e+00  6.18850834e+00  6.32977329e+00  6.33125990e+00
  6.34704046e+00  6.56964130e+00  6.70516229e+00  6.99970895e+00
  7.00249402e+00  7.19282308e+00  7.20211298e+00  7.28734475e+00
  7.35010299e+00  7.44716149e+00  7.50603906e+00  7.54471352e+00
  7.58247200e+00  7.65767206e+00  7.66016563e+00  7.71984955e+00
  7.78078637e+00  7.84525230e+00  8.06593726e+00  8.21283084e+00
  8.38231302e+00  8.70636803e+00  8.77041320e+00  8.92181437e+00
  8.94340695e+00  9.08750241e+00  9.42036207e+00  9.59669075e+00
  9.85649083e+00  9.90256856e+00  1.03859245e+01  1.04133772e+01
  1.05718535e+01  1.08848341e+01  1.11568500e+01  1.14372192e+01
  1.15059187e+01  1.18167385e+01  1.18522632e+01  1.18781572e+01
  1.20019720e+01  1.30002346e+01  1.31280315e+01  1.37786875e+01
  1.38036806e+01  1.42729734e+01  1.43374448e+01  1.57431368e+01
  1.65563102e+01  3.23291090e+01]
nelec by numeric integration = 8.000000313342342
    CPU time for vxc     42.95 sec, wall time      0.34 sec
    CPU time for df-vj      3.58 sec, wall time      0.03 sec
E1 = -41.37323299636058  Ecoul = 21.363116867306783  Exc = -4.119720928692249
cycle= 3 E= -17.149074316614  delta_E= -0.533  |g|= 0.0309  |ddm|= 1.79
    CPU time for cycle= 3    111.56 sec, wall time      0.87 sec
  HOMO = -0.267387361276169  LUMO = -0.00924000287941026
  mo_energy =
[-9.35883739e-01 -4.83750599e-01 -3.42324394e-01 -2.67387361e-01
 -9.24000288e-03  5.99379234e-02  2.45784891e-01  2.50115933e-01
  2.83810948e-01  3.02032580e-01  3.84398234e-01  4.09665670e-01
  4.57875810e-01  5.19995281e-01  7.25602250e-01  7.56125612e-01
  8.46097630e-01  9.14966140e-01  1.00311178e+00  1.04230654e+00
  1.22070037e+00  1.23094841e+00  1.28222718e+00  1.32249445e+00
  1.49662160e+00  1.72570124e+00  1.78141526e+00  1.89447715e+00
  1.98530922e+00  2.05967256e+00  2.15655232e+00  2.18440245e+00
  2.19516516e+00  2.27423615e+00  2.30574538e+00  2.33820652e+00
  2.44857392e+00  2.52926571e+00  2.55676326e+00  2.59659390e+00
  2.88224736e+00  2.98028171e+00  3.06987738e+00  3.09214181e+00
  3.58184113e+00  3.61663489e+00  3.75087037e+00  3.81887421e+00
  3.82452834e+00  3.99371605e+00  4.00544989e+00  4.32373841e+00
  4.33211792e+00  4.34083149e+00  4.52495402e+00  4.96146407e+00
  5.27511555e+00  5.67211357e+00  5.84153590e+00  5.93903078e+00
  6.02208910e+00  6.19165520e+00  6.33904517e+00  6.34159849e+00
  6.35265728e+00  6.57492657e+00  6.71567425e+00  7.00772662e+00
  7.01190854e+00  7.20148363e+00  7.20900693e+00  7.29714374e+00
  7.35670396e+00  7.45542239e+00  7.51387066e+00  7.55127969e+00
  7.59119108e+00  7.66770868e+00  7.67280943e+00  7.72988568e+00
  7.78793520e+00  7.85448658e+00  8.07795566e+00  8.22134949e+00
  8.39143860e+00  8.71627408e+00  8.78104918e+00  8.93192812e+00
  8.95328850e+00  9.09768612e+00  9.43098364e+00  9.60492050e+00
  9.86494040e+00  9.91209471e+00  1.03930406e+01  1.04212805e+01
  1.05799430e+01  1.08913271e+01  1.11651806e+01  1.14423894e+01
  1.15148061e+01  1.18233380e+01  1.18578485e+01  1.18840781e+01
  1.20080414e+01  1.30102519e+01  1.31326588e+01  1.37847528e+01
  1.38077623e+01  1.42766547e+01  1.43419212e+01  1.57492054e+01
  1.65617421e+01  3.23227862e+01]
nelec by numeric integration = 8.000000314927739
    CPU time for vxc     42.47 sec, wall time      0.34 sec
    CPU time for df-vj      7.87 sec, wall time      0.06 sec
E1 = -41.370834524875676  Ecoul = 21.36014971937166  Exc = -4.119293299691281
cycle= 4 E= -17.1492153640633  delta_E= -0.000141  |g|= 0.00853  |ddm|= 0.053
    CPU time for cycle= 4    108.19 sec, wall time      0.86 sec
  HOMO = -0.267233100163066  LUMO = -0.0101085399251166
  mo_energy =
[-9.36395485e-01 -4.84060138e-01 -3.41578934e-01 -2.67233100e-01
 -1.01085399e-02  5.93121152e-02  2.45736279e-01  2.49714379e-01
  2.83056566e-01  3.01720752e-01  3.84201558e-01  4.08900412e-01
  4.57038429e-01  5.19283095e-01  7.24819224e-01  7.55969117e-01
  8.45441661e-01  9.14250804e-01  1.00257408e+00  1.04159905e+00
  1.22058605e+00  1.23096078e+00  1.28238313e+00  1.32227883e+00
  1.49675478e+00  1.72562889e+00  1.78089659e+00  1.89367574e+00
  1.98418152e+00  2.05870370e+00  2.15607841e+00  2.18339228e+00
  2.19460527e+00  2.27387256e+00  2.30492551e+00  2.33745121e+00
  2.44782830e+00  2.52874611e+00  2.55607345e+00  2.59592124e+00
  2.88178283e+00  2.97968433e+00  3.06925167e+00  3.09128929e+00
  3.58167833e+00  3.61640429e+00  3.75143951e+00  3.81921323e+00
  3.82519063e+00  3.99394667e+00  4.00557410e+00  4.32423524e+00
  4.33207910e+00  4.34034200e+00  4.52470921e+00  4.96100722e+00
  5.27463914e+00  5.67126966e+00  5.84088444e+00  5.93824068e+00
  6.02106390e+00  6.19171570e+00  6.33853408e+00  6.34046959e+00
  6.35277917e+00  6.57478669e+00  6.71464661e+00  7.00713378e+00
  7.01123477e+00  7.20047464e+00  7.20784542e+00  7.29625790e+00
  7.35560599e+00  7.45452824e+00  7.51284659e+00  7.55043605e+00
  7.59002887e+00  7.66687701e+00  7.67184004e+00  7.72908385e+00
  7.78712681e+00  7.85344053e+00  8.07716699e+00  8.22068981e+00
  8.39100101e+00  8.71554998e+00  8.78038635e+00  8.93148481e+00
  8.95251774e+00  9.09671942e+00  9.43060033e+00  9.60492358e+00
  9.86526169e+00  9.91183182e+00  1.03930647e+01  1.04215533e+01
  1.05801857e+01  1.08918493e+01  1.11648894e+01  1.14429641e+01
  1.15145835e+01  1.18234464e+01  1.18580264e+01  1.18849835e+01
  1.20080696e+01  1.30094686e+01  1.31327612e+01  1.37844859e+01
  1.38078316e+01  1.42769366e+01  1.43417687e+01  1.57492165e+01
  1.65615812e+01  3.23233637e+01]
nelec by numeric integration = 8.00000031554246
    CPU time for vxc     32.49 sec, wall time      0.26 sec
    CPU time for df-vj      9.22 sec, wall time      0.07 sec
E1 = -41.361942161899286  Ecoul = 21.34940562088669  Exc = -4.117455497470621
cycle= 5 E= -17.1492292973512  delta_E= -1.39e-05  |g|= 0.00119  |ddm|= 0.00771
    CPU time for cycle= 5     78.64 sec, wall time      0.62 sec
  HOMO = -0.267268428909676  LUMO = -0.0102035263404588
  mo_energy =
[-9.36409200e-01 -4.84145471e-01 -3.41731977e-01 -2.67268429e-01
 -1.02035263e-02  5.92033638e-02  2.45559551e-01  2.49565407e-01
  2.82965994e-01  3.01604920e-01  3.84085595e-01  4.08784390e-01
  4.56902803e-01  5.19147182e-01  7.24667979e-01  7.55840311e-01
  8.45298993e-01  9.14109195e-01  1.00242552e+00  1.04148599e+00
  1.22043686e+00  1.23077737e+00  1.28220395e+00  1.32213494e+00
  1.49657898e+00  1.72557670e+00  1.78076626e+00  1.89358403e+00
  1.98410967e+00  2.05860366e+00  2.15591491e+00  2.18329292e+00
  2.19445696e+00  2.27376203e+00  2.30479825e+00  2.33734973e+00
  2.44768115e+00  2.52859776e+00  2.55593047e+00  2.59580525e+00
  2.88164717e+00  2.97956605e+00  3.06916607e+00  3.09117535e+00
  3.58156161e+00  3.61628854e+00  3.75126864e+00  3.81902990e+00
  3.82501404e+00  3.99376405e+00  4.00547253e+00  4.32399234e+00
  4.33194036e+00  4.34026196e+00  4.52458888e+00  4.96089071e+00
  5.27452365e+00  5.67119734e+00  5.84080722e+00  5.93814130e+00
  6.02100920e+00  6.19174650e+00  6.33847825e+00  6.34043063e+00
  6.35266631e+00  6.57467558e+00  6.71458355e+00  7.00701059e+00
  7.01114864e+00  7.20038772e+00  7.20775730e+00  7.29624021e+00
  7.35552795e+00  7.45445961e+00  7.51275106e+00  7.55037849e+00
  7.58999221e+00  7.66677395e+00  7.67179940e+00  7.72896716e+00
  7.78703314e+00  7.85335993e+00  8.07708215e+00  8.22057153e+00
  8.39088557e+00  8.71545789e+00  8.78029091e+00  8.93138729e+00
  8.95245600e+00  9.09664575e+00  9.43054563e+00  9.60482000e+00
  9.86511393e+00  9.91176796e+00  1.03929917e+01  1.04214392e+01
  1.05800762e+01  1.08917440e+01  1.11648628e+01  1.14429145e+01
  1.15145318e+01  1.18234201e+01  1.18580392e+01  1.18847924e+01
  1.20080759e+01  1.30094484e+01  1.31327925e+01  1.37844979e+01
  1.38078781e+01  1.42769642e+01  1.43418149e+01  1.57491774e+01
  1.65616020e+01  3.23236739e+01]
nelec by numeric integration = 8.000000315583966
    CPU time for vxc     32.06 sec, wall time      0.25 sec
    CPU time for df-vj     10.50 sec, wall time      0.08 sec
E1 = -41.360334743642994  Ecoul = 21.347455183522786  Exc = -4.117112683095875
cycle= 6 E= -17.1492295020841  delta_E= -2.05e-07  |g|= 0.000173  |ddm|= 0.00157
    CPU time for cycle= 6     92.20 sec, wall time      0.72 sec
  HOMO = -0.267299543644112  LUMO = -0.0102171272570785
  mo_energy =
[-9.36439885e-01 -4.84170330e-01 -3.41758706e-01 -2.67299544e-01
 -1.02171273e-02  5.91909692e-02  2.45551648e-01  2.49555686e-01
  2.82951804e-01  3.01589338e-01  3.84075802e-01  4.08771700e-01
  4.56889435e-01  5.19134030e-01  7.24657212e-01  7.55826050e-01
  8.45284821e-01  9.14092357e-01  1.00241434e+00  1.04147145e+00
  1.22042341e+00  1.23076495e+00  1.28219289e+00  1.32211992e+00
  1.49656764e+00  1.72555172e+00  1.78075275e+00  1.89356860e+00
  1.98409255e+00  2.05858879e+00  2.15590117e+00  2.18327656e+00
  2.19444456e+00  2.27374266e+00  2.30478512e+00  2.33733085e+00
  2.44766569e+00  2.52858287e+00  2.55591461e+00  2.59578774e+00
  2.88163224e+00  2.97954572e+00  3.06914525e+00  3.09115943e+00
  3.58154115e+00  3.61626864e+00  3.75124654e+00  3.81901075e+00
  3.82499219e+00  3.99374718e+00  4.00544611e+00  4.32397817e+00
  4.33192009e+00  4.34023828e+00  4.52456838e+00  4.96087026e+00
  5.27450444e+00  5.67118096e+00  5.84078803e+00  5.93812551e+00
  6.02099228e+00  6.19170914e+00  6.33845351e+00  6.34040936e+00
  6.35264132e+00  6.57465264e+00  6.71456207e+00  7.00699311e+00
  7.01112622e+00  7.20036860e+00  7.20773938e+00  7.29621370e+00
  7.35550872e+00  7.45443977e+00  7.51273322e+00  7.55035573e+00
  7.58997098e+00  7.66675341e+00  7.67177513e+00  7.72895044e+00
  7.78701411e+00  7.85334351e+00  8.07705983e+00  8.22055328e+00
  8.39086276e+00  8.71543694e+00  8.78026786e+00  8.93136458e+00
  8.95243238e+00  9.09662510e+00  9.43051817e+00  9.60479374e+00
  9.86508944e+00  9.91174001e+00  1.03929614e+01  1.04214105e+01
  1.05800482e+01  1.08917132e+01  1.11648303e+01  1.14428766e+01
  1.15144999e+01  1.18233847e+01  1.18579996e+01  1.18847654e+01
  1.20080383e+01  1.30094191e+01  1.31327519e+01  1.37844615e+01
  1.38078366e+01  1.42769230e+01  1.43417755e+01  1.57491424e+01
  1.65615642e+01  3.23236093e+01]
nelec by numeric integration = 8.000000315569931
    CPU time for vxc     34.54 sec, wall time      0.27 sec
    CPU time for df-vj      7.49 sec, wall time      0.06 sec
E1 = -41.36062703940776  Ecoul = 21.34781074500334  Exc = -4.117175953582438
cycle= 7 E= -17.1492295068549  delta_E= -4.77e-09  |g|= 7.55e-06  |ddm|= 0.000217
    CPU time for cycle= 7    101.87 sec, wall time      0.80 sec
  HOMO = -0.267298131384527  LUMO = -0.0102163239602537
  mo_energy =
[-9.36438072e-01 -4.84168417e-01 -3.41757111e-01 -2.67298131e-01
 -1.02163240e-02  5.91917794e-02  2.45551998e-01  2.49556489e-01
  2.82952875e-01  3.01589902e-01  3.84076467e-01  4.08772699e-01
  4.56890334e-01  5.19134774e-01  7.24657996e-01  7.55826655e-01
  8.45285415e-01  9.14093328e-01  1.00241516e+00  1.04147275e+00
  1.22042392e+00  1.23076540e+00  1.28219322e+00  1.32212101e+00
  1.49656815e+00  1.72555298e+00  1.78075380e+00  1.89356987e+00
  1.98409432e+00  2.05859024e+00  2.15590225e+00  2.18327805e+00
  2.19444582e+00  2.27374389e+00  2.30478638e+00  2.33733236e+00
  2.44766684e+00  2.52858375e+00  2.55591554e+00  2.59578879e+00
  2.88163320e+00  2.97954730e+00  3.06914657e+00  3.09116076e+00
  3.58154228e+00  3.61626960e+00  3.75124760e+00  3.81901196e+00
  3.82499317e+00  3.99374803e+00  4.00544742e+00  4.32397906e+00
  4.33192114e+00  4.34023982e+00  4.52456947e+00  4.96087169e+00
  5.27450625e+00  5.67118282e+00  5.84078997e+00  5.93812735e+00
  6.02099432e+00  6.19171110e+00  6.33845554e+00  6.34041140e+00
  6.35264314e+00  6.57465439e+00  6.71456402e+00  7.00699469e+00
  7.01112836e+00  7.20037084e+00  7.20774169e+00  7.29621571e+00
  7.35551094e+00  7.45444201e+00  7.51273540e+00  7.55035803e+00
  7.58997344e+00  7.66675536e+00  7.67177739e+00  7.72895253e+00
  7.78701618e+00  7.85334585e+00  8.07706203e+00  8.22055519e+00
  8.39086452e+00  8.71543915e+00  8.78026996e+00  8.93136642e+00
  8.95243449e+00  9.09662743e+00  9.43051975e+00  9.60479570e+00
  9.86509086e+00  9.91174171e+00  1.03929633e+01  1.04214125e+01
  1.05800499e+01  1.08917150e+01  1.11648324e+01  1.14428786e+01
  1.15145020e+01  1.18233865e+01  1.18580017e+01  1.18847673e+01
  1.20080402e+01  1.30094209e+01  1.31327542e+01  1.37844638e+01
  1.38078388e+01  1.42769254e+01  1.43417778e+01  1.57491449e+01
  1.65615666e+01  3.23236124e+01]
nelec by numeric integration = 8.000000315570691
    CPU time for vxc     34.46 sec, wall time      0.27 sec
    CPU time for df-vj      7.11 sec, wall time      0.06 sec
E1 = -41.360615288467926  Ecoul = 21.347796161908764  Exc = -4.117173121439498
cycle= 8 E= -17.1492295068667  delta_E= -1.18e-11  |g|= 1.53e-06  |ddm|= 1.53e-05
    CPU time for cycle= 8     64.30 sec, wall time      0.50 sec
  HOMO = -0.267298736437414  LUMO = -0.010216487752818
  mo_energy =
[-9.36438691e-01 -4.84168951e-01 -3.41757720e-01 -2.67298736e-01
 -1.02164878e-02  5.91916063e-02  2.45551825e-01  2.49556331e-01
  2.82952674e-01  3.01589650e-01  3.84076254e-01  4.08772561e-01
  4.56890203e-01  5.19134635e-01  7.24657884e-01  7.55826391e-01
  8.45285214e-01  9.14093096e-01  1.00241500e+00  1.04147256e+00
  1.22042366e+00  1.23076513e+00  1.28219293e+00  1.32212072e+00
  1.49656784e+00  1.72555253e+00  1.78075360e+00  1.89356970e+00
  1.98409417e+00  2.05859010e+00  2.15590204e+00  2.18327790e+00
  2.19444563e+00  2.27374356e+00  2.30478624e+00  2.33733209e+00
  2.44766663e+00  2.52858350e+00  2.55591531e+00  2.59578855e+00
  2.88163295e+00  2.97954697e+00  3.06914622e+00  3.09116057e+00
  3.58154186e+00  3.61626920e+00  3.75124708e+00  3.81901151e+00
  3.82499269e+00  3.99374763e+00  4.00544687e+00  4.32397867e+00
  4.33192074e+00  4.34023937e+00  4.52456906e+00  4.96087127e+00
  5.27450593e+00  5.67118264e+00  5.84078969e+00  5.93812716e+00
  6.02099416e+00  6.19171036e+00  6.33845507e+00  6.34041113e+00
  6.35264265e+00  6.57465397e+00  6.71456374e+00  7.00699443e+00
  7.01112798e+00  7.20037061e+00  7.20774152e+00  7.29621525e+00
  7.35551072e+00  7.45444176e+00  7.51273520e+00  7.55035770e+00
  7.58997319e+00  7.66675506e+00  7.67177704e+00  7.72895230e+00
  7.78701594e+00  7.85334570e+00  8.07706167e+00  8.22055488e+00
  8.39086409e+00  8.71543885e+00  8.78026958e+00  8.93136604e+00
  8.95243414e+00  9.09662717e+00  9.43051925e+00  9.60479516e+00
  9.86509029e+00  9.91174117e+00  1.03929627e+01  1.04214119e+01
  1.05800494e+01  1.08917144e+01  1.11648318e+01  1.14428777e+01
  1.15145013e+01  1.18233858e+01  1.18580008e+01  1.18847666e+01
  1.20080393e+01  1.30094202e+01  1.31327534e+01  1.37844630e+01
  1.38078380e+01  1.42769246e+01  1.43417769e+01  1.57491441e+01
  1.65615658e+01  3.23236111e+01]
nelec by numeric integration = 8.000000315570315
    CPU time for vxc     29.02 sec, wall time      0.23 sec
    CPU time for df-vj      7.56 sec, wall time      0.06 sec
E1 = -41.3606228258154  Ecoul = 21.347805287288537  Exc = -4.117174709470764
Extra cycle  E= -17.1492295068656  delta_E= 1.03e-12  |g|= 2.91e-06  |ddm|= 4.84e-06
    CPU time for scf_cycle    954.65 sec, wall time      7.66 sec
    CPU time for SCF    954.66 sec, wall time      7.66 sec
converged SCF energy = -17.1492295068656
