#INFO: **** input file is /home/nkousuke/lustre/toBeSync/turboRVB/05turbo-genius-development/turbogenius_paper/04data/sanity_checks/03pyscf_HF_turbo_VMC_via_trexio/00open_boundary/results/K/pyscf-HF-workflow/run.py ****

from pyscf_wrapper import Pyscf_wrapper

# input variables
pyscf_chkfile="pyscf.chk"
structure_file="K.xyz"

# input variables
omp_num_threads=128
charge=0
spin=1
basis="ccecp-ccpvqz"
ecp="ccecp"
scf_method="HF"
dft_xc="NA"
solver_newton=False
MP2_flag=False
CCSD_flag=False
pyscf_output="out.pyscf"
twist_average=False
exp_to_discard=0.0
kpt=[0.0, 0.0, 0.0]
kpt_grid=[1, 1, 1]
smearing_method="fermi"
smearing_sigma=0.0

pyscf_calc=Pyscf_wrapper(
                        structure_file=structure_file,
                        chkfile=pyscf_chkfile,
                        )

pyscf_calc.run_pyscf(
                  omp_num_threads=omp_num_threads,
                  charge=charge,
                  spin=spin,
                  basis=basis,
                  ecp=ecp,
                  scf_method=scf_method,
                  dft_xc=dft_xc,
                  solver_newton=solver_newton,
                  MP2_flag=MP2_flag,
                  CCSD_flag=CCSD_flag,
                  pyscf_output=pyscf_output,
                  twist_average=twist_average,
                  exp_to_discard=exp_to_discard,
                  kpt=kpt,
                  kpt_grid=kpt_grid,
                  smearing_method=smearing_method,
                  smearing_sigma=smearing_sigma
                  )
                #INFO: ******************** input file end ********************


System: uname_result(system='Linux', node='spcc-105', release='5.4.0-66-generic', version='#74-Ubuntu SMP Wed Jan 27 22:54:38 UTC 2021', machine='x86_64', processor='x86_64')  Threads 128
Python 3.7.3 (default, Mar 27 2019, 22:11:17) 
[GCC 7.3.0]
numpy 1.20.1  scipy 1.7.3
Date: Mon Dec 19 18:11:53 2022
PySCF version 2.0.1
PySCF path  /home/nkousuke/application/anaconda3/lib/python3.7/site-packages/pyscf

[CONFIG] conf_file /home/nkousuke/.pyscf_conf.py
[INPUT] verbose = 5
[INPUT] max_memory = 507596.265625 
[INPUT] num. atoms = 1
[INPUT] num. electrons = 9
[INPUT] charge = 0
[INPUT] spin (= nelec alpha-beta = 2S) = 1
[INPUT] symmetry False subgroup None
[INPUT] Mole.unit = A
[INPUT]  1 K      0.000000000000   0.000000000000   0.000000000000 AA    0.000000000000   0.000000000000   0.000000000000 Bohr
[INPUT] ---------------- BASIS SET ---------------- 
[INPUT] l, kappa, [nprim/nctr], expnt,             c_1 c_2 ...
[INPUT] K
[INPUT] 0    0    [13   /1   ]  33.190598         0.0009346
                                17.266513         -0.0174608
                                8.982438          0.1529984
                                4.672871          -0.3405068
                                2.430935          -0.2286344
                                1.264628          0.2267298
                                0.657889          0.5491042
                                0.342249          0.4231045
                                0.178046          0.0910408
                                0.092623          0.0034552
                                0.048185          -0.0002837
                                0.025067          0.0005546
                                0.01304           3.1e-06
[INPUT] 0    0    [13   /1   ]  33.190598         -0.0001355
                                17.266513         0.0032758
                                8.982438          -0.0312755
                                4.672871          0.073045
                                2.430935          0.0490517
                                1.264628          -0.0532027
                                0.657889          -0.1367816
                                0.342249          -0.1662998
                                0.178046          -0.1546974
                                0.092623          0.0017898
                                0.048185          0.40887
                                0.025067          0.5671515
                                0.01304           0.1842076
[INPUT] 0    0    [1    /1   ]  0.150724             1
[INPUT] 0    0    [1    /1   ]  0.06905              1
[INPUT] 0    0    [1    /1   ]  0.031633             1
[INPUT] 0    0    [1    /1   ]  0.014492             1
[INPUT] 1    0    [12   /1   ]  25.955983         5.31e-05
                                12.863527         0.0035974
                                6.375036          -0.0405858
                                3.159405          -0.0422076
                                1.56577           0.2096577
                                0.77598           0.3950945
                                0.384568          0.3750436
                                0.190588          0.1568248
                                0.094453          0.0196694
                                0.04681           0.0012538
                                0.023199          0.0002905
                                0.011497          -9.8e-06
[INPUT] 1    0    [12   /1   ]  25.955983         -1.13e-05
                                12.863527         -0.0005013
                                6.375036          0.0060108
                                3.159405          0.0057055
                                1.56577           -0.0328898
                                0.77598           -0.0591252
                                0.384568          -0.0679803
                                0.190588          -0.0485253
                                0.094453          0.021828
                                0.04681           0.2782765
                                0.023199          0.4864044
                                0.011497          0.3183272
[INPUT] 1    0    [1    /1   ]  0.071025             1
[INPUT] 1    0    [1    /1   ]  0.035889             1
[INPUT] 1    0    [1    /1   ]  0.018135             1
[INPUT] 1    0    [1    /1   ]  0.009164             1
[INPUT] 2    0    [11   /1   ]  25.002828         2.86e-05
                                10.959775         -0.0003019
                                4.804124          0.0048298
                                2.105846          0.014022
                                0.92308           0.0258914
                                0.404624          0.0360544
                                0.177364          0.0486273
                                0.077746          0.1024295
                                0.034079          0.2811401
                                0.014938          0.512389
                                0.006548          0.2526561
[INPUT] 2    0    [1    /1   ]  0.063256             1
[INPUT] 2    0    [1    /1   ]  0.023163             1
[INPUT] 2    0    [1    /1   ]  0.008482             1
[INPUT] 3    0    [1    /1   ]  0.123997             1
[INPUT] 3    0    [1    /1   ]  0.062758             1
[INPUT] 4    0    [1    /1   ]  0.011607             1

nuclear repulsion = 0
number of shells = 19
number of NR pGTOs = 207
number of NR cGTOs = 67
basis = ccecp-ccpvqz
ecp = ccecp
CPU time:         5.65


******** <class 'pyscf.scf.rohf.ROHF'> ********
method = ROHF-RHF
initial guess = minao
damping factor = 0
level_shift factor = 0
DIIS = <class 'pyscf.scf.diis.CDIIS'>
diis_start_cycle = 1
diis_space = 8
SCF conv_tol = 1e-09
SCF conv_tol_grad = None
SCF max_cycles = 200
direct_scf = True
direct_scf_tol = 1e-13
chkfile to save SCF result = pyscf.chk
max_memory 507596 MB (current use 106 MB)
num. doubly occ = 4  num. singly occ = 1
Set gradient conv threshold to 3.16228e-05
E1 = -46.4236039845044  Ecoul = 18.532114421364266
init E= -27.8914895631401
cond(S) = 47243.133416764686
    CPU time for initialize scf    143.08 sec, wall time      1.30 sec
  HOMO = -0.0631371846165232  LUMO = 0.014024841963852
                  Roothaan           | alpha              | beta
  Highest 2-occ =  -0.95492743677228 | -0.954927436772279 | -0.954927436772279
  Lowest 0-occ =   0.014024841963852 | 0.0140248419638521 | 0.0140248419638521
  1-occ =         -0.0631371846165232 | -0.0631371846165246 | -0.0631371846165246
  Roothaan mo_energy =
[-1.78422364e+00 -9.54927437e-01 -9.54927437e-01 -9.54927437e-01
 -6.31371846e-02  1.40248420e-02  1.40248420e-02  1.40248420e-02
  2.67498769e-02  2.67498769e-02  2.67498769e-02  2.67498769e-02
  2.67498769e-02  4.64464084e-02  4.64464084e-02  4.64464084e-02
  5.14882307e-02  6.36800474e-02  6.36800474e-02  6.36800474e-02
  6.36800474e-02  6.36800474e-02  6.36800474e-02  6.36800474e-02
  6.36800474e-02  6.36800474e-02  8.51709496e-02  8.51709496e-02
  8.51709496e-02  8.51709496e-02  8.51709496e-02  1.30216672e-01
  1.30216672e-01  1.30216672e-01  2.12163561e-01  2.12163561e-01
  2.12163561e-01  2.12163561e-01  2.12163561e-01  2.35209728e-01
  2.37041962e-01  2.37041962e-01  2.37041962e-01  2.37041962e-01
  2.37041962e-01  2.37041962e-01  2.37041962e-01  3.28924375e-01
  3.28924375e-01  3.28924375e-01  4.45607806e-01  4.45607806e-01
  4.45607806e-01  4.45607806e-01  4.45607806e-01  6.27128702e-01
  6.27128702e-01  6.27128702e-01  6.27128702e-01  6.27128702e-01
  6.27128702e-01  6.27128702e-01  8.26472700e-01  1.03097828e+00
  1.03097828e+00  1.03097828e+00  2.98904778e+01]
E1 = -46.29739382674913  Ecoul = 18.364094330984493
cycle= 1 E= -27.9332994957646  delta_E= -0.0418  |g|= 0.0125  |ddm|= 0.694
    CPU time for cycle= 1     97.31 sec, wall time      0.76 sec
  HOMO = -0.0682079668025364  LUMO = 0.0123551710436501
                  Roothaan           | alpha              | beta
  Highest 2-occ = -0.970531469013465 | -0.971802702838101 | -0.969260235188829
  Lowest 0-occ =  0.0123551710436501 | 0.0072353864006068 | 0.0174749556866929
  1-occ =         -0.0682079668025364 | -0.146739560912949 | 0.0155654078705509
  Roothaan mo_energy =
[-1.79986000e+00 -9.70531469e-01 -9.70531469e-01 -9.70531469e-01
 -6.82079668e-02  1.23551710e-02  1.23551710e-02  1.23551710e-02
  2.64224396e-02  2.64224396e-02  2.64224396e-02  2.64224396e-02
  2.64224396e-02  4.38894666e-02  4.38894666e-02  4.38894666e-02
  5.19731233e-02  6.35415799e-02  6.35415799e-02  6.35415799e-02
  6.35415799e-02  6.35415799e-02  6.35415799e-02  6.35415799e-02
  6.35415799e-02  6.35415799e-02  8.23346848e-02  8.23346848e-02
  8.23346848e-02  8.23346848e-02  8.23346848e-02  1.27268500e-01
  1.27268500e-01  1.27268500e-01  2.04266168e-01  2.04266168e-01
  2.04266168e-01  2.04266168e-01  2.04266168e-01  2.30378577e-01
  2.32387192e-01  2.32387192e-01  2.32387192e-01  2.32387192e-01
  2.32387192e-01  2.32387192e-01  2.32387192e-01  3.22674248e-01
  3.22674248e-01  3.22674248e-01  4.33714746e-01  4.33714746e-01
  4.33714746e-01  4.33714746e-01  4.33714746e-01  6.17528585e-01
  6.17528585e-01  6.17528585e-01  6.17528585e-01  6.17528585e-01
  6.17528585e-01  6.17528585e-01  8.15691872e-01  1.02040907e+00
  1.02040907e+00  1.02040907e+00  2.98735535e+01]
E1 = -46.39532335744764  Ecoul = 18.460813406878835
cycle= 2 E= -27.9345099505688  delta_E= -0.00121  |g|= 0.00486  |ddm|= 0.41
    CPU time for cycle= 2     93.33 sec, wall time      0.85 sec
  HOMO = -0.0632011977654252  LUMO = 0.013655225441237
                  Roothaan           | alpha              | beta
  Highest 2-occ = -0.958368626872464 | -0.959980901543881 | -0.957006190236535
  Lowest 0-occ =   0.013655225441237 | 0.00966433575452688 | 0.0176207879004431
  1-occ =         -0.0632011977654252 |  -0.14747339689975 | 0.0224052933779623
  Roothaan mo_energy =
[-1.78752443e+00 -9.58368627e-01 -9.58368627e-01 -9.58368627e-01
 -6.32011978e-02  1.36552254e-02  1.36552254e-02  1.36552254e-02
  2.66853819e-02  2.66853819e-02  2.66853819e-02  2.66853819e-02
  2.66853819e-02  4.57653775e-02  4.57653775e-02  4.57653775e-02
  5.06077634e-02  6.36544616e-02  6.36544616e-02  6.36544616e-02
  6.36544616e-02  6.36544616e-02  6.36544616e-02  6.36544616e-02
  6.36544616e-02  6.36544616e-02  8.44962534e-02  8.44962534e-02
  8.44962534e-02  8.44962534e-02  8.44962534e-02  1.29482315e-01
  1.29482315e-01  1.29482315e-01  2.10222658e-01  2.10222658e-01
  2.10222658e-01  2.10222658e-01  2.10222658e-01  2.34023335e-01
  2.35909279e-01  2.35909279e-01  2.35909279e-01  2.35909279e-01
  2.35909279e-01  2.35909279e-01  2.35909279e-01  3.27390276e-01
  3.27390276e-01  3.27390276e-01  4.42918994e-01  4.42918994e-01
  4.42918994e-01  4.42918994e-01  4.42918994e-01  6.24649698e-01
  6.24649698e-01  6.24649698e-01  6.24649698e-01  6.24649698e-01
  6.24649698e-01  6.24649698e-01  8.23959595e-01  1.02850081e+00
  1.02850081e+00  1.02850081e+00  2.98877770e+01]
E1 = -46.41501746684042  Ecoul = 18.48040545549351
cycle= 3 E= -27.9346120113469  delta_E= -0.000102  |g|= 0.00159  |ddm|= 0.105
    CPU time for cycle= 3     95.32 sec, wall time      0.82 sec
  HOMO = -0.0612940227419898  LUMO = 0.0140476999523488
                  Roothaan           | alpha              | beta
  Highest 2-occ = -0.954986564444799 | -0.957574365294964 | -0.954457250997309
  Lowest 0-occ =  0.0140476999523488 | 0.0102751176760009 | 0.0175811693746067
  1-occ =         -0.0612940227419898 | -0.147587666963876 | 0.0243755481119245
  Roothaan mo_energy =
[-1.78428517e+00 -9.54986564e-01 -9.54986564e-01 -9.54986564e-01
 -6.12940227e-02  1.40477000e-02  1.40477000e-02  1.40477000e-02
  2.67551441e-02  2.67551441e-02  2.67551441e-02  2.67551441e-02
  2.67551441e-02  4.64739213e-02  4.64739213e-02  4.64739213e-02
  5.00382008e-02  6.36824269e-02  6.36824269e-02  6.36824269e-02
  6.36824269e-02  6.36824269e-02  6.36824269e-02  6.36824269e-02
  6.36824269e-02  6.36824269e-02  8.52062448e-02  8.52062448e-02
  8.52062448e-02  8.52062448e-02  8.52062448e-02  1.30240544e-01
  1.30240544e-01  1.30240544e-01  2.12224061e-01  2.12224061e-01
  2.12224061e-01  2.12224061e-01  2.12224061e-01  2.34923078e-01
  2.37101822e-01  2.37101822e-01  2.37101822e-01  2.37101822e-01
  2.37101822e-01  2.37101822e-01  2.37101822e-01  3.28983571e-01
  3.28983571e-01  3.28983571e-01  4.45590602e-01  4.45590602e-01
  4.45590602e-01  4.45590602e-01  4.45590602e-01  6.27217651e-01
  6.27217651e-01  6.27217651e-01  6.27217651e-01  6.27217651e-01
  6.27217651e-01  6.27217651e-01  8.26512181e-01  1.03100040e+00
  1.03100040e+00  1.03100040e+00  2.98901864e+01]
E1 = -46.42399125308356  Ecoul = 18.48936894955382
cycle= 4 E= -27.9346223035297  delta_E= -1.03e-05  |g|= 0.000145  |ddm|= 0.0467
    CPU time for cycle= 4     78.22 sec, wall time      0.66 sec
  HOMO = -0.0613693865428432  LUMO = 0.0140207989892289
                  Roothaan           | alpha              | beta
  Highest 2-occ = -0.954950356651001 | -0.956473109537793 | -0.953288387144839
  Lowest 0-occ =  0.0140207989892289 | 0.0104141366068548 | 0.0176421585639487
  1-occ =         -0.0613693865428432 | -0.147626587953013 |  0.024913524885244
  Roothaan mo_energy =
[-1.78424528e+00 -9.54950357e-01 -9.54950357e-01 -9.54950357e-01
 -6.13693865e-02  1.40207990e-02  1.40207990e-02  1.40207990e-02
  2.67487168e-02  2.67487168e-02  2.67487168e-02  2.67487168e-02
  2.67487168e-02  4.64417970e-02  4.64417970e-02  4.64417970e-02
  5.00822418e-02  6.36794576e-02  6.36794576e-02  6.36794576e-02
  6.36794576e-02  6.36794576e-02  6.36794576e-02  6.36794576e-02
  6.36794576e-02  6.36794576e-02  8.51644083e-02  8.51644083e-02
  8.51644083e-02  8.51644083e-02  8.51644083e-02  1.30210202e-01
  1.30210202e-01  1.30210202e-01  2.12149142e-01  2.12149142e-01
  2.12149142e-01  2.12149142e-01  2.12149142e-01  2.34828194e-01
  2.37030970e-01  2.37030970e-01  2.37030970e-01  2.37030970e-01
  2.37030970e-01  2.37030970e-01  2.37030970e-01  3.28911345e-01
  3.28911345e-01  3.28911345e-01  4.45589467e-01  4.45589467e-01
  4.45589467e-01  4.45589467e-01  4.45589467e-01  6.27111456e-01
  6.27111456e-01  6.27111456e-01  6.27111456e-01  6.27111456e-01
  6.27111456e-01  6.27111456e-01  8.26453676e-01  1.03096167e+00
  1.03096167e+00  1.03096167e+00  2.98904542e+01]
E1 = -46.42353923742516  Ecoul = 18.488916918841824
cycle= 5 E= -27.9346223185833  delta_E= -1.51e-08  |g|= 1.14e-05  |ddm|= 0.00281
    CPU time for cycle= 5     92.97 sec, wall time      0.74 sec
  HOMO = -0.0613648939210194  LUMO = 0.0140250674504599
                  Roothaan           | alpha              | beta
  Highest 2-occ = -0.954926601508207 | -0.956527820900914 | -0.953343508181381
  Lowest 0-occ =  0.0140250674504599 | 0.0104091325824943 | 0.0176386271119229
  1-occ =         -0.0613648939210194 | -0.147629228937091 | 0.0248985817378213
  Roothaan mo_energy =
[-1.78422230e+00 -9.54926602e-01 -9.54926602e-01 -9.54926602e-01
 -6.13648939e-02  1.40250675e-02  1.40250675e-02  1.40250675e-02
  2.67499769e-02  2.67499769e-02  2.67499769e-02  2.67499769e-02
  2.67499769e-02  4.64465363e-02  4.64465363e-02  4.64465363e-02
  5.00819629e-02  6.36801050e-02  6.36801050e-02  6.36801050e-02
  6.36801050e-02  6.36801050e-02  6.36801050e-02  6.36801050e-02
  6.36801050e-02  6.36801050e-02  8.51713125e-02  8.51713125e-02
  8.51713125e-02  8.51713125e-02  8.51713125e-02  1.30217141e-01
  1.30217141e-01  1.30217141e-01  2.12164327e-01  2.12164327e-01
  2.12164327e-01  2.12164327e-01  2.12164327e-01  2.34846679e-01
  2.37042591e-01  2.37042591e-01  2.37042591e-01  2.37042591e-01
  2.37042591e-01  2.37042591e-01  2.37042591e-01  3.28925157e-01
  3.28925157e-01  3.28925157e-01  4.45608592e-01  4.45608592e-01
  4.45608592e-01  4.45608592e-01  4.45608592e-01  6.27129535e-01
  6.27129535e-01  6.27129535e-01  6.27129535e-01  6.27129535e-01
  6.27129535e-01  6.27129535e-01  8.26471517e-01  1.03097902e+00
  1.03097902e+00  1.03097902e+00  2.98904780e+01]
E1 = -46.42362142859869  Ecoul = 18.48899910896138
cycle= 6 E= -27.9346223196373  delta_E= -1.05e-09  |g|= 1.66e-06  |ddm|= 0.000951
    CPU time for cycle= 6     81.70 sec, wall time      0.65 sec
  HOMO = -0.0613631292761591  LUMO = 0.0140251378367143
                  Roothaan           | alpha              | beta
  Highest 2-occ = -0.954926916044202 | -0.956517675014506 | -0.953332945578732
  Lowest 0-occ =  0.0140251378367143 | 0.0104113342335982 | 0.0176393058868455
  1-occ =         -0.0613631292761591 |  -0.14762933909713 | 0.0249036763439282
  Roothaan mo_energy =
[-1.78422260e+00 -9.54926916e-01 -9.54926916e-01 -9.54926916e-01
 -6.13631293e-02  1.40251378e-02  1.40251378e-02  1.40251378e-02
  2.67499592e-02  2.67499592e-02  2.67499592e-02  2.67499592e-02
  2.67499592e-02  4.64465968e-02  4.64465968e-02  4.64465968e-02
  5.00806014e-02  6.36800878e-02  6.36800878e-02  6.36800878e-02
  6.36800878e-02  6.36800878e-02  6.36800878e-02  6.36800878e-02
  6.36800878e-02  6.36800878e-02  8.51712959e-02  8.51712959e-02
  8.51712959e-02  8.51712959e-02  8.51712959e-02  1.30216853e-01
  1.30216853e-01  1.30216853e-01  2.12164110e-01  2.12164110e-01
  2.12164110e-01  2.12164110e-01  2.12164110e-01  2.34846076e-01
  2.37042495e-01  2.37042495e-01  2.37042495e-01  2.37042495e-01
  2.37042495e-01  2.37042495e-01  2.37042495e-01  3.28924942e-01
  3.28924942e-01  3.28924942e-01  4.45608339e-01  4.45608339e-01
  4.45608339e-01  4.45608339e-01  4.45608339e-01  6.27129319e-01
  6.27129319e-01  6.27129319e-01  6.27129319e-01  6.27129319e-01
  6.27129319e-01  6.27129319e-01  8.26471386e-01  1.03097881e+00
  1.03097881e+00  1.03097881e+00  2.98904780e+01]
E1 = -46.42360854332121  Ecoul = 18.488986223662316
cycle= 7 E= -27.9346223196589  delta_E= -2.16e-11  |g|= 1.41e-07  |ddm|= 0.000134
    CPU time for cycle= 7     84.84 sec, wall time      0.67 sec
  HOMO = -0.0613632504798159  LUMO = 0.01402512307074
                  Roothaan           | alpha              | beta
  Highest 2-occ = -0.954926924942686 | -0.956519253959525 | -0.953334595925846
  Lowest 0-occ =    0.01402512307074 | 0.0104110346349626 | 0.0176392115065175
  1-occ =         -0.0613632504798159 | -0.147629331412168 | 0.0249028928136136
  Roothaan mo_energy =
[-1.78422261e+00 -9.54926925e-01 -9.54926925e-01 -9.54926925e-01
 -6.13632505e-02  1.40251231e-02  1.40251231e-02  1.40251231e-02
  2.67499569e-02  2.67499569e-02  2.67499569e-02  2.67499569e-02
  2.67499569e-02  4.64465911e-02  4.64465911e-02  4.64465911e-02
  5.00807065e-02  6.36800871e-02  6.36800871e-02  6.36800871e-02
  6.36800871e-02  6.36800871e-02  6.36800871e-02  6.36800871e-02
  6.36800871e-02  6.36800871e-02  8.51712883e-02  8.51712883e-02
  8.51712883e-02  8.51712883e-02  8.51712883e-02  1.30216865e-01
  1.30216865e-01  1.30216865e-01  2.12164114e-01  2.12164114e-01
  2.12164114e-01  2.12164114e-01  2.12164114e-01  2.34846080e-01
  2.37042489e-01  2.37042489e-01  2.37042489e-01  2.37042489e-01
  2.37042489e-01  2.37042489e-01  2.37042489e-01  3.28924942e-01
  3.28924942e-01  3.28924942e-01  4.45608336e-01  4.45608336e-01
  4.45608336e-01  4.45608336e-01  4.45608336e-01  6.27129325e-01
  6.27129325e-01  6.27129325e-01  6.27129325e-01  6.27129325e-01
  6.27129325e-01  6.27129325e-01  8.26471395e-01  1.03097882e+00
  1.03097882e+00  1.03097882e+00  2.98904779e+01]
E1 = -46.423609572470184  Ecoul = 18.488987252811107
Extra cycle  E= -27.9346223196591  delta_E= -1.85e-13  |g|= 4.94e-08  |ddm|= 6.27e-06
    CPU time for scf_cycle    856.47 sec, wall time      7.16 sec
    CPU time for SCF    856.56 sec, wall time      7.16 sec
converged SCF energy = -27.9346223196591
