#INFO: **** input file is /home/nkousuke/lustre/toBeSync/turboRVB/05turbo-genius-development/turbogenius_paper/04data/sanity_checks/03pyscf_HF_turbo_VMC_via_trexio/00open_boundary/results/HCl/pyscf-HF-workflow/run.py ****

from pyscf_wrapper import Pyscf_wrapper

# input variables
pyscf_chkfile="pyscf.chk"
structure_file="HCl.xyz"

# input variables
omp_num_threads=128
charge=0
spin=0
basis="ccecp-ccpvqz"
ecp="ccecp"
scf_method="HF"
dft_xc="NA"
solver_newton=False
MP2_flag=False
CCSD_flag=False
pyscf_output="out.pyscf"
twist_average=False
exp_to_discard=0.0
kpt=[0.0, 0.0, 0.0]
kpt_grid=[1, 1, 1]
smearing_method="fermi"
smearing_sigma=0.0

pyscf_calc=Pyscf_wrapper(
                        structure_file=structure_file,
                        chkfile=pyscf_chkfile,
                        )

pyscf_calc.run_pyscf(
                  omp_num_threads=omp_num_threads,
                  charge=charge,
                  spin=spin,
                  basis=basis,
                  ecp=ecp,
                  scf_method=scf_method,
                  dft_xc=dft_xc,
                  solver_newton=solver_newton,
                  MP2_flag=MP2_flag,
                  CCSD_flag=CCSD_flag,
                  pyscf_output=pyscf_output,
                  twist_average=twist_average,
                  exp_to_discard=exp_to_discard,
                  kpt=kpt,
                  kpt_grid=kpt_grid,
                  smearing_method=smearing_method,
                  smearing_sigma=smearing_sigma
                  )
                #INFO: ******************** input file end ********************


System: uname_result(system='Linux', node='spcc-105', release='5.4.0-66-generic', version='#74-Ubuntu SMP Wed Jan 27 22:54:38 UTC 2021', machine='x86_64', processor='x86_64')  Threads 128
Python 3.7.3 (default, Mar 27 2019, 22:11:17) 
[GCC 7.3.0]
numpy 1.20.1  scipy 1.7.3
Date: Mon Dec 19 18:11:36 2022
PySCF version 2.0.1
PySCF path  /home/nkousuke/application/anaconda3/lib/python3.7/site-packages/pyscf

[CONFIG] conf_file /home/nkousuke/.pyscf_conf.py
[INPUT] verbose = 5
[INPUT] max_memory = 507621.35546875 
[INPUT] num. atoms = 2
[INPUT] num. electrons = 8
[INPUT] charge = 0
[INPUT] spin (= nelec alpha-beta = 2S) = 0
[INPUT] symmetry False subgroup None
[INPUT] Mole.unit = A
[INPUT]  1 Cl     0.000000000000   0.000000000000   0.070800000000 AA    0.000000000000   0.000000000000   0.133792609619 Bohr
[INPUT]  2 H      0.000000000000   0.000000000000  -1.203600000000 AA    0.000000000000   0.000000000000  -2.274474363527 Bohr
[INPUT] ---------------- BASIS SET ---------------- 
[INPUT] l, kappa, [nprim/nctr], expnt,             c_1 c_2 ...
[INPUT] Cl
[INPUT] 0    0    [10   /1   ]  15.583847         0.002501
                                8.858485          -0.010046
                                5.035519          0.08581
                                2.862391          -0.290136
                                1.627098          -0.140314
                                0.924908          0.146839
                                0.525755          0.392484
                                0.29886           0.425061
                                0.169884          0.227195
                                0.096569          0.059828
[INPUT] 0    0    [1    /1   ]  1.038268             1
[INPUT] 0    0    [1    /1   ]  0.418863             1
[INPUT] 0    0    [1    /1   ]  0.16898              1
[INPUT] 1    0    [10   /1   ]  7.682894          -0.004609
                                4.507558          -0.001798
                                2.644587          -0.068614
                                1.551581          0.062352
                                0.910313          0.166337
                                0.534081          0.282292
                                0.313346          0.275967
                                0.18384           0.241328
                                0.107859          0.110223
                                0.063281          0.040289
[INPUT] 1    0    [1    /1   ]  2.626653             1
[INPUT] 1    0    [1    /1   ]  1.069041             1
[INPUT] 1    0    [1    /1   ]  0.435097             1
[INPUT] 2    0    [1    /1   ]  2.102692             1
[INPUT] 2    0    [1    /1   ]  0.763188             1
[INPUT] 2    0    [1    /1   ]  0.277005             1
[INPUT] 3    0    [1    /1   ]  1.139446             1
[INPUT] 3    0    [1    /1   ]  0.434852             1
[INPUT] 4    0    [1    /1   ]  0.844301             1
[INPUT] H
[INPUT] 0    0    [8    /1   ]  23.843185         0.0041149
                                10.212443         0.0104644
                                4.374164          0.0280111
                                1.873529          0.0758862
                                0.802465          0.1821062
                                0.343709          0.3485214
                                0.147217          0.3782313
                                0.063055          0.1164241
[INPUT] 0    0    [1    /1   ]  0.081856             1
[INPUT] 0    0    [1    /1   ]  0.233254             1
[INPUT] 0    0    [1    /1   ]  0.664673             1
[INPUT] 1    0    [1    /1   ]  0.284469             1
[INPUT] 1    0    [1    /1   ]  0.847159             1
[INPUT] 1    0    [1    /1   ]  2.522868             1
[INPUT] 2    0    [1    /1   ]  0.665279             1
[INPUT] 2    0    [1    /1   ]  2.048739             1
[INPUT] 3    0    [1    /1   ]  1.42146              1

nuclear repulsion = 2.90665448559322
number of shells = 24
number of NR pGTOs = 127
number of NR cGTOs = 84
basis = ccecp-ccpvqz
ecp = ccecp
CPU time:         4.53


******** <class 'pyscf.scf.hf.RHF'> ********
method = RHF
initial guess = minao
damping factor = 0
level_shift factor = 0
DIIS = <class 'pyscf.scf.diis.CDIIS'>
diis_start_cycle = 1
diis_space = 8
SCF conv_tol = 1e-09
SCF conv_tol_grad = None
SCF max_cycles = 200
direct_scf = True
direct_scf_tol = 1e-13
chkfile to save SCF result = pyscf.chk
max_memory 507621 MB (current use 106 MB)
Set gradient conv threshold to 3.16228e-05
E1 = -30.77027129163426  E_coul = 12.721416189945517
init E= -15.1422006160955
cond(S) = 7754.731517656562
    CPU time for initialize scf     91.39 sec, wall time      0.86 sec
  HOMO = -0.446362822435546  LUMO = 0.0743222530176619
  mo_energy =
[-1.20495148 -0.62174842 -0.44636282 -0.44636282  0.07432225  0.23555878
  0.4239187   0.44987405  0.44987405  0.52211572  0.52211572  0.55446792
  0.55446792  0.63747889  0.77194614  0.84351763  0.84351763  1.13000581
  1.23674623  1.52341232  1.52341232  1.5617224   1.5617224   1.58567708
  1.58567708  1.67851052  1.67851052  1.73685677  1.83891448  1.83891448
  1.945376    2.36821245  2.36821245  2.48344271  2.48344271  2.65680276
  2.65680276  2.6767971   3.03908473  3.12491189  3.12491189  3.3582725
  3.51234984  3.93835935  3.93835935  3.96367693  3.96367693  4.11579558
  4.11579558  4.37744401  4.37744401  4.39206282  4.39206282  4.42697171
  4.42697171  4.5146273   4.69625749  4.69625749  4.75177065  5.04509147
  5.04509147  5.36624104  5.36624104  5.46201959  6.23385696  6.23385696
  6.88722563  6.88722563  7.14429555  7.58525777  7.59000705  7.59000705
  8.24564443  8.24564443  8.65116718  8.65116718  9.08172814  9.08172814
  9.45252702 10.46913471 11.34218065 11.34218065 12.62633176 17.74433885]
E1 = -31.104171946161824  E_coul = 12.893956143073108
cycle= 1 E= -15.3035613174955  delta_E= -0.161  |g|= 0.208  |ddm|= 1.93
    CPU time for cycle= 1     59.37 sec, wall time      0.47 sec
  HOMO = -0.462041533161256  LUMO = 0.0923065145525399
  mo_energy =
[-1.12158411 -0.62167775 -0.46204153 -0.46204153  0.09230651  0.24713992
  0.447405    0.447405    0.45216442  0.55756455  0.55756455  0.5827884
  0.5827884   0.65623717  0.76974897  0.82994078  0.82994078  1.1108777
  1.21641824  1.54368978  1.54368978  1.60898091  1.60898091  1.61049406
  1.61049406  1.73830945  1.73830945  1.76976214  1.87477772  1.87477772
  1.96203768  2.31491628  2.31491628  2.40721263  2.40721263  2.61266281
  2.6793492   2.6793492   3.09683543  3.10621509  3.10621509  3.3228729
  3.5125236   3.9907638   3.9907638   4.03247852  4.03247852  4.13990387
  4.13990387  4.42861291  4.42861291  4.45241831  4.45241831  4.49510691
  4.49510691  4.56157458  4.75886811  4.75886811  4.79427377  5.12059666
  5.12059666  5.39029841  5.39029841  5.42022818  6.13315441  6.13315441
  6.80747732  6.80747732  7.08188425  7.45587421  7.49437145  7.49437145
  8.1116338   8.1116338   8.52012394  8.52012394  8.97406674  8.97406674
  9.3458391  10.41010098 11.4207801  11.4207801  12.65459903 17.81879796]
E1 = -31.023602227034964  E_coul = 12.79841465614466
cycle= 2 E= -15.3185330852971  delta_E= -0.015  |g|= 0.071  |ddm|= 0.439
    CPU time for cycle= 2     58.28 sec, wall time      0.51 sec
  HOMO = -0.476873114624238  LUMO = 0.107447243747719
  mo_energy =
[-1.12509117 -0.62732144 -0.47687311 -0.47687311  0.10744724  0.25239487
  0.4403293   0.45414881  0.45414881  0.5445079   0.5445079   0.57433551
  0.57433551  0.65663994  0.7705638   0.83774125  0.83774125  1.12628393
  1.23062128  1.54112445  1.54112445  1.59594569  1.59594569  1.60359428
  1.60359428  1.71570777  1.71570777  1.75364995  1.85852064  1.85852064
  1.95611317  2.34680359  2.34680359  2.4518588   2.4518588   2.64898028
  2.67508474  2.67508474  3.05889255  3.11623644  3.11623644  3.34625492
  3.52261184  3.9737531   3.9737531   4.01133945  4.01133945  4.13990054
  4.13990054  4.41688521  4.41688521  4.42460938  4.42460938  4.45976854
  4.45976854  4.54576585  4.72526994  4.72526994  4.76527935  5.08916344
  5.08916344  5.37971057  5.37971057  5.44320361  6.19563999  6.19563999
  6.86109541  6.86109541  7.13405607  7.52223916  7.55809274  7.55809274
  8.19085277  8.19085277  8.59560325  8.59560325  9.04099652  9.04099652
  9.41968519 10.44566155 11.38243021 11.38243021 12.63959275 17.78205491]
E1 = -31.058840766654566  E_coul = 12.831954281370091
cycle= 3 E= -15.3202319996913  delta_E= -0.0017  |g|= 0.0171  |ddm|= 0.129
    CPU time for cycle= 3     79.70 sec, wall time      0.63 sec
  HOMO = -0.474813562296662  LUMO = 0.109103252053934
  mo_energy =
[-1.12226081 -0.62546048 -0.47481356 -0.47481356  0.10910325  0.2550004
  0.44341358  0.45666137  0.45666137  0.54616734  0.54616734  0.57512273
  0.57512273  0.6580363   0.77309965  0.8398568   0.8398568   1.12659086
  1.23418649  1.54303404  1.54303404  1.59713546  1.59713546  1.60611988
  1.60611988  1.71871259  1.71871259  1.75827907  1.86222324  1.86222324
  1.95926787  2.34903798  2.34903798  2.45573732  2.45573732  2.65177591
  2.67779131  2.67779131  3.06625918  3.11969444  3.11969444  3.35006998
  3.52475528  3.97648851  3.97648851  4.01382202  4.01382202  4.14149149
  4.14149149  4.42083891  4.42083891  4.42856912  4.42856912  4.46589258
  4.46589258  4.54945911  4.73114285  4.73114285  4.77199587  5.09420132
  5.09420132  5.38438296  5.38438296  5.45099546  6.20017628  6.20017628
  6.86548098  6.86548098  7.13821017  7.53109481  7.56483865  7.56483865
  8.19895448  8.19895448  8.60371441  8.60371441  9.04877867  9.04877867
  9.4278463  10.45507127 11.38883427 11.38883427 12.64708796 17.78817375]
E1 = -31.055778400667723  E_coul = 12.828685002409882
cycle= 4 E= -15.3204389126646  delta_E= -0.000207  |g|= 0.00363  |ddm|= 0.0577
    CPU time for cycle= 4     48.68 sec, wall time      0.38 sec
  HOMO = -0.475298087720927  LUMO = 0.108979164386165
  mo_energy =
[-1.12270973 -0.62593545 -0.47529809 -0.47529809  0.10897916  0.25448849
  0.44311112  0.45632589  0.45632589  0.54597089  0.54597089  0.57500033
  0.57500033  0.65781343  0.77255938  0.83953327  0.83953327  1.12630963
  1.23364878  1.54269198  1.54269198  1.59719228  1.59719228  1.60546906
  1.60546906  1.71835314  1.71835314  1.7572809   1.86152089  1.86152089
  1.95878186  2.34878584  2.34878584  2.45556875  2.45556875  2.65159054
  2.67746148  2.67746148  3.0650881   3.11913481  3.11913481  3.34941278
  3.52399064  3.97602006  3.97602006  4.01389336  4.01389336  4.14087417
  4.14087417  4.41977675  4.41977675  4.42829001  4.42829001  4.46483944
  4.46483944  4.54871907  4.73012022  4.73012022  4.77053564  5.09358361
  5.09358361  5.38313411  5.38313411  5.45007969  6.19994352  6.19994352
  6.86515924  6.86515924  7.13772608  7.53103487  7.56457327  7.56457327
  8.19890045  8.19890045  8.60367675  8.60367675  9.04856982  9.04856982
  9.42765857 10.45430447 11.387706   11.387706   12.64559129 17.786842  ]
E1 = -31.05594816511329  E_coul = 12.828844181596386
cycle= 5 E= -15.3204494979237  delta_E= -1.06e-05  |g|= 0.000455  |ddm|= 0.0108
    CPU time for cycle= 5     46.61 sec, wall time      0.38 sec
  HOMO = -0.475285820547027  LUMO = 0.108976418573234
  mo_energy =
[-1.1226893  -0.62587205 -0.47528582 -0.47528582  0.10897642  0.25453279
  0.44315611  0.45635211  0.45635211  0.54599381  0.54599381  0.57500084
  0.57500084  0.65783082  0.77258406  0.83954233  0.83954233  1.12631811
  1.23369465  1.54270342  1.54270342  1.59720589  1.59720589  1.60550975
  1.60550975  1.7184143   1.7184143   1.75734331  1.86154885  1.86154885
  1.95879939  2.34879808  2.34879808  2.45561396  2.45561396  2.65164831
  2.67752217  2.67752217  3.0651492   3.11916997  3.11916997  3.34947427
  3.52403335  3.97605584  3.97605584  4.01394031  4.01394031  4.14091608
  4.14091608  4.41984983  4.41984983  4.42837775  4.42837775  4.464903
  4.464903    4.54879992  4.73017029  4.73017029  4.7705815   5.09370522
  5.09370522  5.38321757  5.38321757  5.4501771   6.199984    6.199984
  6.86521718  6.86521718  7.13782424  7.53114786  7.56466564  7.56466564
  8.19898975  8.19898975  8.60378586  8.60378586  9.04866994  9.04866994
  9.42778496 10.45442447 11.38786262 11.38786262 12.64573017 17.78701244]
E1 = -31.05574377747415  E_coul = 12.828639638709323
cycle= 6 E= -15.3204496531716  delta_E= -1.55e-07  |g|= 6.16e-05  |ddm|= 0.00114
    CPU time for cycle= 6     43.46 sec, wall time      0.34 sec
  HOMO = -0.475318820095502  LUMO = 0.108970852140823
  mo_energy =
[-1.12272397 -0.62588079 -0.47531882 -0.47531882  0.10897085  0.25451749
  0.44315036  0.45633693  0.45633693  0.54597078  0.54597078  0.57498403
  0.57498403  0.65781545  0.77257331  0.83953553  0.83953553  1.12630917
  1.23368587  1.5426844   1.5426844   1.59718595  1.59718595  1.60548104
  1.60548104  1.71837703  1.71837703  1.75731335  1.86152379  1.86152379
  1.95878488  2.34879558  2.34879558  2.45561486  2.45561486  2.65164224
  2.67749158  2.67749158  3.06511892  3.11915445  3.11915445  3.3494534
  3.52399906  3.97602296  3.97602296  4.01391042  4.01391042  4.14087918
  4.14087918  4.419803    4.419803    4.42833633  4.42833633  4.46486236
  4.46486236  4.54875585  4.73013429  4.73013429  4.77054515  5.09365443
  5.09365443  5.38317066  5.38317066  5.45015445  6.19998438  6.19998438
  6.86520707  6.86520707  7.1377919   7.53115767  7.56465672  7.56465672
  8.19899772  8.19899772  8.60378981  8.60378981  9.04866696  9.04866696
  9.42777244 10.45440379 11.38779818 11.38779818 12.64567143 17.78693992]
E1 = -31.055797260874392  E_coul = 12.828693120082045
cycle= 7 E= -15.3204496551991  delta_E= -2.03e-09  |g|= 1.46e-05  |ddm|= 0.000288
    CPU time for cycle= 7     90.45 sec, wall time      0.72 sec
  HOMO = -0.475312249053361  LUMO = 0.108974420931099
  mo_energy =
[-1.1227148  -0.62587139 -0.47531225 -0.47531225  0.10897442  0.25452128
  0.44315292  0.45634295  0.45634295  0.54597674  0.54597674  0.57498649
  0.57498649  0.65782069  0.77257822  0.83954055  0.83954055  1.12631416
  1.23369193  1.54268968  1.54268968  1.59719071  1.59719071  1.60548845
  1.60548845  1.71838673  1.71838673  1.75732186  1.86153066  1.86153066
  1.95879003  2.34880223  2.34880223  2.45562268  2.45562268  2.65165092
  2.67750141  2.67750141  3.06512737  3.11916239  3.11916239  3.34946323
  3.5240092   3.97603152  3.97603152  4.01391929  4.01391929  4.14088881
  4.14088881  4.41981449  4.41981449  4.42834899  4.42834899  4.46487313
  4.46487313  4.54876666  4.73014349  4.73014349  4.77055461  5.09366959
  5.09366959  5.38318347  5.38318347  5.45016624  6.19999363  6.19999363
  6.86521685  6.86521685  7.13780334  7.53116851  7.5646673   7.5646673
  8.19900814  8.19900814  8.60380055  8.60380055  9.04867785  9.04867785
  9.42778355 10.45441614 11.38781651 11.38781651 12.64568741 17.78695934]
E1 = -31.055786042657104  E_coul = 12.828681901780303
cycle= 8 E= -15.3204496552836  delta_E= -8.45e-11  |g|= 2.09e-06  |ddm|= 4.05e-05
    CPU time for cycle= 8     67.64 sec, wall time      0.53 sec
  HOMO = -0.475312303489374  LUMO = 0.108974457529991
  mo_energy =
[-1.12271482 -0.6258717  -0.4753123  -0.4753123   0.10897446  0.25452154
  0.44315297  0.45634289  0.45634289  0.54597677  0.54597677  0.57498642
  0.57498642  0.65782076  0.77257829  0.83954057  0.83954057  1.12631424
  1.23369203  1.54268967  1.54268967  1.59719071  1.59719071  1.60548846
  1.60548846  1.71838676  1.71838676  1.75732193  1.86153069  1.86153069
  1.95879004  2.34880223  2.34880223  2.45562263  2.45562263  2.65165095
  2.67750143  2.67750143  3.06512742  3.11916241  3.11916241  3.34946325
  3.52400921  3.97603156  3.97603156  4.01391935  4.01391935  4.14088883
  4.14088883  4.41981453  4.41981453  4.42834908  4.42834908  4.4648732
  4.4648732   4.54876669  4.73014354  4.73014354  4.77055465  5.0936697
  5.0936697   5.38318351  5.38318351  5.4501661   6.1999935   6.1999935
  6.86521672  6.86521672  7.13780314  7.53116825  7.56466705  7.56466705
  8.19900783  8.19900783  8.60380025  8.60380025  9.04867755  9.04867755
  9.42778317 10.45441588 11.38781665 11.38781665 12.64568739 17.78695948]
E1 = -31.055785707583524  E_coul = 12.828681566704526
Extra cycle  E= -15.3204496552858  delta_E= -2.2e-12  |g|= 6.79e-07  |ddm|= 6.2e-06
    CPU time for scf_cycle    610.64 sec, wall time      5.01 sec
    CPU time for SCF    610.65 sec, wall time      5.01 sec
converged SCF energy = -15.3204496552858
