#INFO: **** input file is /home/nkousuke/lustre/toBeSync/turboRVB/05turbo-genius-development/turbogenius_paper/04data/sanity_checks/02pyscf_prep_LDA_via_trexio/00open_boundary/results/NH3/pyscf-LDA-workflow/run.py ****

from pyscf_wrapper import Pyscf_wrapper

# input variables
pyscf_chkfile="pyscf.chk"
structure_file="NH3.xyz"

# input variables
omp_num_threads=128
charge=0
spin=0
basis="ccecp-ccpvqz"
ecp="ccecp"
scf_method="DFT"
dft_xc="LDA_X,LDA_C_PZ"
solver_newton=False
MP2_flag=False
CCSD_flag=False
pyscf_output="out.pyscf"
twist_average=False
exp_to_discard=0.1
kpt=[0.0, 0.0, 0.0]
kpt_grid=[1, 1, 1]
smearing_method="fermi"
smearing_sigma=0.0

pyscf_calc=Pyscf_wrapper(
                        structure_file=structure_file,
                        chkfile=pyscf_chkfile,
                        )

pyscf_calc.run_pyscf(
                  omp_num_threads=omp_num_threads,
                  charge=charge,
                  spin=spin,
                  basis=basis,
                  ecp=ecp,
                  scf_method=scf_method,
                  dft_xc=dft_xc,
                  solver_newton=solver_newton,
                  MP2_flag=MP2_flag,
                  CCSD_flag=CCSD_flag,
                  pyscf_output=pyscf_output,
                  twist_average=twist_average,
                  exp_to_discard=exp_to_discard,
                  kpt=kpt,
                  kpt_grid=kpt_grid,
                  smearing_method=smearing_method,
                  smearing_sigma=smearing_sigma
                  )
                #INFO: ******************** input file end ********************


System: uname_result(system='Linux', node='spcc-109', release='5.4.0-66-generic', version='#74-Ubuntu SMP Wed Jan 27 22:54:38 UTC 2021', machine='x86_64', processor='x86_64')  Threads 128
Python 3.7.3 (default, Mar 27 2019, 22:11:17) 
[GCC 7.3.0]
numpy 1.20.1  scipy 1.7.3
Date: Thu Dec 22 07:20:44 2022
PySCF version 2.0.1
PySCF path  /home/nkousuke/application/anaconda3/lib/python3.7/site-packages/pyscf

[CONFIG] conf_file /home/nkousuke/.pyscf_conf.py
[INPUT] verbose = 5
[INPUT] max_memory = 507882.6015625 
[INPUT] num. atoms = 4
[INPUT] num. electrons = 8
[INPUT] charge = 0
[INPUT] spin (= nelec alpha-beta = 2S) = 0
[INPUT] symmetry False subgroup None
[INPUT] Mole.unit = A
[INPUT]  1 N      0.000000000000   0.000000000000   0.113760000000 AA    0.000000000000   0.000000000000   0.214975243931 Bohr
[INPUT]  2 H      0.000000000000   0.937390000000  -0.265460000000 AA    0.000000000000   1.771410371906  -0.501646697027 Bohr
[INPUT]  3 H      0.811810000000  -0.468700000000  -0.265460000000 AA    1.534098565183  -0.885714634584  -0.501646697027 Bohr
[INPUT]  4 H     -0.811810000000  -0.468700000000  -0.265460000000 AA   -1.534098565183  -0.885714634584  -0.501646697027 Bohr
[INPUT] ---------------- BASIS SET ---------------- 
[INPUT] l, kappa, [nprim/nctr], expnt,             c_1 c_2 ...
[INPUT] H
[INPUT] 0    0    [8    /1   ]  23.843185         0.0041149
                                10.212443         0.0104644
                                4.374164          0.0280111
                                1.873529          0.0758862
                                0.802465          0.1821062
                                0.343709          0.3485214
                                0.147217          0.3782313
                                0.063055          0.1164241
[INPUT] 0    0    [1    /1   ]  0.081856             1
[INPUT] 0    0    [1    /1   ]  0.233254             1
[INPUT] 0    0    [1    /1   ]  0.664673             1
[INPUT] 1    0    [1    /1   ]  0.284469             1
[INPUT] 1    0    [1    /1   ]  0.847159             1
[INPUT] 1    0    [1    /1   ]  2.522868             1
[INPUT] 2    0    [1    /1   ]  0.665279             1
[INPUT] 2    0    [1    /1   ]  2.048739             1
[INPUT] 3    0    [1    /1   ]  1.42146              1
[INPUT] N
[INPUT] 0    0    [9    /1   ]  42.693822         -0.0009357
                                19.963207         0.0063295
                                9.3345971         0.0105038
                                4.9278187         -0.1653735
                                2.04092           -0.0005352
                                0.96708           0.2452063
                                0.476131          0.4582128
                                0.211443          0.3641224
                                0.098869          0.0620406
[INPUT] 0    0    [1    /1   ]  1.625001             1
[INPUT] 0    0    [1    /1   ]  0.310826             1
[INPUT] 0    0    [1    /1   ]  0.135764             1
[INPUT] 1    0    [9    /1   ]  18.925871         0.0073505
                                9.225603          0.0292844
                                4.581431          0.0652168
                                2.300164          0.1405153
                                1.154825          0.2328188
                                0.582039          0.2989556
                                0.290535          0.2802507
                                0.145867          0.1527995
                                0.073234          0.0355475
[INPUT] 1    0    [1    /1   ]  1.02075              1
[INPUT] 1    0    [1    /1   ]  0.413103             1
[INPUT] 1    0    [1    /1   ]  0.140736             1
[INPUT] 2    0    [1    /1   ]  3.028459             1
[INPUT] 2    0    [1    /1   ]  1.009895             1
[INPUT] 2    0    [1    /1   ]  0.346233             1
[INPUT] 3    0    [1    /1   ]  2.024747             1
[INPUT] 3    0    [1    /1   ]  0.691129             1
[INPUT] 4    0    [1    /1   ]  1.357512             1

nuclear repulsion = 8.8275449588313
number of shells = 44
number of NR pGTOs = 197
number of NR cGTOs = 144
basis = ccecp-ccpvqz
ecp = ccecp
CPU time:         5.80


******** <class 'pyscf.df.df_jk.density_fit.<locals>.DFHF'> ********
method = DFHF-RKS-RHF
initial guess = minao
damping factor = 0
level_shift factor = 0
DIIS = <class 'pyscf.scf.diis.CDIIS'>
diis_start_cycle = 1
diis_space = 8
SCF conv_tol = 1e-09
SCF conv_tol_grad = None
SCF max_cycles = 200
direct_scf = True
direct_scf_tol = 1e-13
chkfile to save SCF result = pyscf.chk
max_memory 507882 MB (current use 106 MB)
XC library pyscf.dft.libxc version 5.1.7
    S. Lehtola, C. Steigemann, M. J. Oliveira, and M. A. Marques, SoftwareX 7, 1 (2018)
XC functionals = LDA_X,LDA_C_PZ
    P. A. M. Dirac, Math. Proc. Cambridge Philos. Soc. 26, 376 (1930)
    F. Bloch, Z. Phys. 57, 545 (1929)
    J. P. Perdew and A. Zunger, Phys. Rev. B 23, 5048 (1981)
radial grids: 
    Treutler-Ahlrichs [JCP 102, 346 (1995); DOI:10.1063/1.469408] (M4) radial grids
    
becke partition: Becke, JCP 88, 2547 (1988); DOI:10.1063/1.454033
pruning grids: <function nwchem_prune at 0x14b9f3aad730>
grids dens level: 3
symmetrized grids: False
atomic radii adjust function: <function treutler_atomic_radii_adjust at 0x14b9f3aad620>
small_rho_cutoff = 1e-07
Set gradient conv threshold to 3.16228e-05
atom N rad-grids = 75, ang-grids = [ 50  50  50  50  50  50  50  50  50  50  50  50  50  50  50  50  50  50
  50  50  50  50  50  86  86  86  86  86  86  86  86  86 266 266 266 266
 266 266 266 302 302 302 302 302 302 302 302 302 302 302 302 302 302 302
 302 302 302 302 266 266 266 266 266 266 266 266 266 266 266 266 266 266
 266 266 266]
atom H rad-grids = 50, ang-grids = [ 50  50  50  50  50  50  50  50  50  50  50  50  50  50  86  86  86  86
 266 266 266 266 302 302 302 302 302 302 302 302 302 302 302 302 302 266
 266 266 266 266 266 266 266 266 266 266 266 266 266 266]
tot grids = 44118
Drop grids 4225
    CPU time for setting up grids     41.59 sec, wall time      0.38 sec
nelec by numeric integration = 7.999863300853426
    CPU time for vxc     45.88 sec, wall time      0.36 sec
Even tempered Gaussians are generated as DF auxbasis for  H N
  ETB auxbasis for H  [[0, [32.28416, 1]], [0, [16.14208, 1]], [0, [8.07104, 1]], [0, [4.03552, 1]], [0, [2.01776, 1]], [0, [1.00888, 1]], [0, [0.50444, 1]], [0, [0.25222, 1]], [0, [0.12611, 1]], [1, [8.571507550502421, 1]], [1, [4.2857537752512105, 1]], [1, [2.1428768876256052, 1]], [1, [1.0714384438128026, 1]], [1, [0.5357192219064013, 1]], [1, [0.26785961095320066, 1]], [2, [4.551504, 1]], [2, [2.275752, 1]], [2, [1.137876, 1]], [2, [0.568938, 1]]]
  ETB auxbasis for N  [[0, [25.310464, 1]], [0, [12.655232, 1]], [0, [6.327616, 1]], [0, [3.163808, 1]], [0, [1.581904, 1]], [0, [0.790952, 1]], [0, [0.395476, 1]], [0, [0.197738, 1]], [1, [21.783437498876435, 1]], [1, [10.891718749438217, 1]], [1, [5.445859374719109, 1]], [1, [2.7229296873595543, 1]], [1, [1.3614648436797772, 1]], [1, [0.6807324218398886, 1]], [1, [0.3403662109199443, 1]], [1, [0.17018310545997214, 1]], [2, [37.495808, 1]], [2, [18.747904, 1]], [2, [9.373952, 1]], [2, [4.686976, 1]], [2, [2.343488, 1]], [2, [1.171744, 1]], [2, [0.585872, 1]], [2, [0.292936, 1]], [2, [0.146468, 1]], [3, [10.191088692093302, 1]], [3, [5.095544346046651, 1]], [3, [2.5477721730233256, 1]], [3, [1.2738860865116628, 1]], [3, [0.6369430432558314, 1]], [3, [0.3184715216279157, 1]], [4, [5.539728, 1]], [4, [2.769864, 1]], [4, [1.384932, 1]], [4, [0.692466, 1]]]
num shells = 92, num cGTOs = 296
    CPU time for df-vj     29.77 sec, wall time      0.24 sec
E1 = -33.90648207857741  Ecoul = 17.11008785832082  Exc = -3.394898479790863
init E= -11.3637477412162
cond(S) = 52723.23194414869
    CPU time for initialize scf    229.83 sec, wall time      2.04 sec
  HOMO = -0.347303007227576  LUMO = -0.0242208548301008
  mo_energy =
[-0.87798378 -0.50495685 -0.50495515 -0.34730301 -0.02422085  0.04749073
  0.04749165  0.18119451  0.18119534  0.21962571  0.28030811  0.33076838
  0.33076969  0.33231568  0.34869603  0.34869769  0.62346372  0.65227356
  0.70492736  0.70492764  0.81148189  0.81148255  0.86346556  0.91838802
  0.91838872  0.97203047  1.01594113  1.01594174  1.14529669  1.21611648
  1.21611768  1.64535264  1.86889524  1.87451303  1.87451485  1.99644971
  1.99645404  2.01595043  2.05979915  2.13617646  2.13617676  2.17898128
  2.1789821   2.19793354  2.25269136  2.26616655  2.26616997  2.33553213
  2.33553301  2.41719277  2.48502856  2.48503072  2.73970675  2.76015673
  2.76016245  2.93593599  3.0634919   3.06350381  3.17140711  3.33500873
  3.33500881  3.37566673  3.46980636  3.46981202  3.72247128  3.81309831
  3.95791     3.95791095  4.08333753  4.38909727  4.38909822  5.64361447
  5.64362599  5.73429861  5.90764915  5.90765383  5.92182455  5.92183906
  5.97860159  6.06850396  6.2732329   6.273235    6.32726915  6.35924833
  6.35924897  6.54527864  6.54527916  6.55668388  6.87963184  6.89471472
  6.89473244  6.95894272  7.18298633  7.18319549  7.18320068  7.33300869
  7.33302776  7.45397483  7.5065207   7.60452257  7.60453668  7.66625274
  7.6988622   7.76424662  7.76426164  7.79261651  7.85656641  7.85657644
  7.96753077  7.96754334  8.02472898  8.1405408   8.14054468  8.23882314
  8.35830669  8.36776973  8.36777223  8.61950844  8.67092253  8.67092905
  8.83035691  8.99876687  8.99877024  9.27046022  9.27046528  9.54532913
  9.54533633  9.70101126  9.82792554 10.05802431 10.07583934 10.07584779
 11.1870369  11.26943306 11.26943485 11.74311313 11.74312758 11.74450145
 11.80177301 12.02534439 12.02537189 14.12620815 14.12624259 19.40243288]
nelec by numeric integration = 7.999998593974871
    CPU time for vxc     26.59 sec, wall time      0.21 sec
    CPU time for df-vj      2.05 sec, wall time      0.02 sec
E1 = -35.82376055070547  Ecoul = 19.177833332779674  Exc = -3.7438670995580554
cycle= 1 E= -11.5622493586526  delta_E= -0.199  |g|= 0.635  |ddm|= 3.89
    CPU time for cycle= 1     40.94 sec, wall time      0.32 sec
  HOMO = -0.0757873165926985  LUMO = 0.0285455768449721
  mo_energy =
[-0.63058279 -0.30029114 -0.30029099 -0.07578732  0.02854558  0.10930647
  0.10930694  0.24671719  0.24671805  0.31925969  0.35567424  0.39697912
  0.39698026  0.43121253  0.45577462  0.45577645  0.6902086   0.69040396
  0.75414408  0.75414434  0.90316242  0.90316389  0.95755022  0.99915631
  0.99915723  1.06719684  1.13064092  1.1306413   1.22619492  1.34259807
  1.34260008  1.84153499  1.97590027  1.97590209  2.03475392  2.05987233
  2.05987609  2.07923926  2.13889311  2.23534498  2.23534561  2.27107113
  2.28577972  2.28578101  2.34802175  2.34802648  2.37181213  2.45760496
  2.45760658  2.57563344  2.63189633  2.63189874  2.8765367   2.87654218
  2.89937734  2.99657425  3.2347617   3.23477486  3.30959257  3.47356197
  3.47356302  3.50158479  3.62138586  3.62139164  3.87548923  3.9960854
  4.13560544  4.13560754  4.25750299  4.59919607  4.59919806  5.786251
  5.78626108  5.87975623  6.00017225  6.00018623  6.05101574  6.05102283
  6.06757318  6.35577973  6.45767677  6.4576807   6.50289513  6.51959362
  6.5195957   6.69128274  6.74792528  6.74792533  6.9713058   7.10102121
  7.10103684  7.15025602  7.28578687  7.28579373  7.35632073  7.47200614
  7.47202218  7.5961561   7.63997476  7.68405285  7.68406774  7.78846695
  7.83371468  7.85688951  7.85690072  7.9646858   7.96469403  7.98582518
  8.07904009  8.07904795  8.11913563  8.33290549  8.33291201  8.4203623
  8.51061013  8.53973356  8.53973634  8.83633988  8.87329818  8.87330293
  9.07854043  9.18407456  9.18407607  9.52655697  9.52655753  9.79864778
  9.79865334  9.90755984 10.06726149 10.30346715 10.30347757 10.32730603
 11.4259422  11.52156026 11.52156371 12.0361751  12.03653588 12.03655023
 12.04278761 12.34594483 12.34597428 14.40123094 14.40126566 19.86902835]
nelec by numeric integration = 7.999992770548466
    CPU time for vxc     37.37 sec, wall time      0.30 sec
    CPU time for df-vj      4.06 sec, wall time      0.03 sec
E1 = -32.74865452665491  Ecoul = 15.722608292194481  Exc = -3.1504275656202654
cycle= 2 E= -11.3489288412494  delta_E= 0.213  |g|= 1.12  |ddm|= 4.41
    CPU time for cycle= 2    102.92 sec, wall time      0.83 sec
  HOMO = -0.22885359266572  LUMO = -0.00383579695513173
  mo_energy =
[-7.80654769e-01 -4.20646894e-01 -4.20645765e-01 -2.28853593e-01
 -3.83579696e-03  7.27454564e-02  7.27461613e-02  2.08452018e-01
  2.08452912e-01  2.58125542e-01  3.07065308e-01  3.60304884e-01
  3.60306016e-01  3.69524305e-01  3.83823302e-01  3.83825025e-01
  6.49692373e-01  6.66959435e-01  7.24987751e-01  7.24988266e-01
  8.47572554e-01  8.47573503e-01  8.97554402e-01  9.52300380e-01
  9.52301433e-01  1.01145497e+00  1.06200330e+00  1.06200380e+00
  1.17509395e+00  1.26367294e+00  1.26367441e+00  1.73245594e+00
  1.91555769e+00  1.91555960e+00  1.93009203e+00  2.02113682e+00
  2.02114097e+00  2.04305584e+00  2.08664459e+00  2.17692684e+00
  2.17692741e+00  2.22260052e+00  2.22260135e+00  2.22824258e+00
  2.29286065e+00  2.29894598e+00  2.29894993e+00  2.37780988e+00
  2.37781106e+00  2.48104379e+00  2.54494556e+00  2.54494820e+00
  2.80168231e+00  2.80309728e+00  2.80310242e+00  2.95764611e+00
  3.13292729e+00  3.13293937e+00  3.22685568e+00  3.38687598e+00
  3.38687633e+00  3.42312185e+00  3.52918673e+00  3.52919242e+00
  3.78401546e+00  3.88405747e+00  4.02534001e+00  4.02534128e+00
  4.15007916e+00  4.46815237e+00  4.46815381e+00  5.70140860e+00
  5.70141966e+00  5.79355822e+00  5.94971983e+00  5.94973124e+00
  5.96306742e+00  5.96307577e+00  6.01261394e+00  6.17700532e+00
  6.34417182e+00  6.34417484e+00  6.39146196e+00  6.42231793e+00
  6.42231919e+00  6.60742048e+00  6.62134269e+00  6.62134320e+00
  6.91456075e+00  6.97415925e+00  6.97417661e+00  7.03328925e+00
  7.22262744e+00  7.22263288e+00  7.25165761e+00  7.38658064e+00
  7.38659857e+00  7.50799159e+00  7.55792454e+00  7.63483347e+00
  7.63484776e+00  7.71367201e+00  7.75167008e+00  7.79684231e+00
  7.79685667e+00  7.85821823e+00  7.89599882e+00  7.89600768e+00
  8.00947174e+00  8.00948239e+00  8.06096383e+00  8.21156688e+00
  8.21157150e+00  8.30564830e+00  8.41645690e+00  8.43346892e+00
  8.43347129e+00  8.71484726e+00  8.74800826e+00  8.74801391e+00
  8.91340344e+00  9.07150507e+00  9.07150773e+00  9.36365719e+00
  9.36366023e+00  9.63923179e+00  9.63923850e+00  9.77675519e+00
  9.92364024e+00  1.01486155e+01  1.01603432e+01  1.01603522e+01
  1.12744344e+01  1.13609476e+01  1.13609500e+01  1.18502054e+01
  1.18502192e+01  1.18505082e+01  1.18892315e+01  1.21410564e+01
  1.21410848e+01  1.42252753e+01  1.42253099e+01  1.95649351e+01]
nelec by numeric integration = 7.999997175831826
    CPU time for vxc     33.39 sec, wall time      0.27 sec
    CPU time for df-vj      2.58 sec, wall time      0.02 sec
E1 = -34.87712118618467  Ecoul = 17.930135760903347  Exc = -3.5299923622521425
cycle= 3 E= -11.6494328287022  delta_E= -0.301  |g|= 0.0182  |ddm|= 3.44
    CPU time for cycle= 3     97.59 sec, wall time      0.77 sec
  HOMO = -0.225772625451933  LUMO = -0.00246438291768085
  mo_energy =
[-7.73631905e-01 -4.14580882e-01 -4.14579874e-01 -2.25772625e-01
 -2.46438292e-03  7.37950572e-02  7.37958009e-02  2.11189591e-01
  2.11190472e-01  2.58748802e-01  3.09977731e-01  3.62812557e-01
  3.62813715e-01  3.71065031e-01  3.85728391e-01  3.85730164e-01
  6.51228052e-01  6.69131237e-01  7.26795112e-01  7.26795631e-01
  8.50631073e-01  8.50632070e-01  9.00231376e-01  9.54437551e-01
  9.54438587e-01  1.01486804e+00  1.06556099e+00  1.06556143e+00
  1.17930106e+00  1.26753354e+00  1.26753502e+00  1.73491901e+00
  1.92012635e+00  1.92012830e+00  1.93310905e+00  2.02523596e+00
  2.02524011e+00  2.04776850e+00  2.09060931e+00  2.18180472e+00
  2.18180532e+00  2.22595963e+00  2.22596052e+00  2.23153570e+00
  2.29670507e+00  2.30221927e+00  2.30222326e+00  2.38130107e+00
  2.38130226e+00  2.48580936e+00  2.54927134e+00  2.54927386e+00
  2.80596459e+00  2.80663635e+00  2.80664159e+00  2.96145869e+00
  3.13694418e+00  3.13695641e+00  3.23202795e+00  3.39126785e+00
  3.39126821e+00  3.42826630e+00  3.53397687e+00  3.53398255e+00
  3.78864661e+00  3.88787669e+00  4.03102298e+00  4.03102427e+00
  4.15498332e+00  4.47330294e+00  4.47330440e+00  5.70728539e+00
  5.70729639e+00  5.79910025e+00  5.95594933e+00  5.95596131e+00
  5.97009706e+00  5.97010498e+00  6.01877583e+00  6.17968771e+00
  6.34967826e+00  6.34968111e+00  6.39965111e+00  6.42819202e+00
  6.42819331e+00  6.61273133e+00  6.62692599e+00  6.62692671e+00
  6.91991592e+00  6.97939450e+00  6.97941191e+00  7.03960359e+00
  7.22750439e+00  7.22750982e+00  7.25847324e+00  7.39193792e+00
  7.39195580e+00  7.51280200e+00  7.56385540e+00  7.63972419e+00
  7.63973868e+00  7.71980406e+00  7.75650729e+00  7.80111117e+00
  7.80112570e+00  7.86357081e+00  7.90214552e+00  7.90215425e+00
  8.01554550e+00  8.01555616e+00  8.06596507e+00  8.21791468e+00
  8.21791935e+00  8.31172356e+00  8.42270598e+00  8.43962667e+00
  8.43962905e+00  8.72102968e+00  8.75328735e+00  8.75329301e+00
  8.91808090e+00  9.07763154e+00  9.07763430e+00  9.36950766e+00
  9.36951086e+00  9.64454783e+00  9.64455451e+00  9.78225141e+00
  9.92849537e+00  1.01534052e+01  1.01669280e+01  1.01669370e+01
  1.12804392e+01  1.13670524e+01  1.13670549e+01  1.18545251e+01
  1.18545394e+01  1.18553702e+01  1.18958424e+01  1.21449977e+01
  1.21450261e+01  1.42302792e+01  1.42303140e+01  1.95647343e+01]
nelec by numeric integration = 7.999997129275659
    CPU time for vxc     47.58 sec, wall time      0.39 sec
    CPU time for df-vj      7.51 sec, wall time      0.06 sec
E1 = -34.863108975384705  Ecoul = 17.912761579282392  Exc = -3.526709764754785
cycle= 4 E= -11.6495122020258  delta_E= -7.94e-05  |g|= 0.00527  |ddm|= 0.0527
    CPU time for cycle= 4    134.16 sec, wall time      1.07 sec
  HOMO = -0.225161421167994  LUMO = -0.00292303118629153
  mo_energy =
[-7.73847081e-01 -4.14645239e-01 -4.14644209e-01 -2.25161421e-01
 -2.92303119e-03  7.34551061e-02  7.34558422e-02  2.11043693e-01
  2.11044580e-01  2.58395956e-01  3.09558397e-01  3.62583157e-01
  3.62584307e-01  3.71119871e-01  3.85485933e-01  3.85487706e-01
  6.51003882e-01  6.68743215e-01  7.26439821e-01  7.26440343e-01
  8.50456508e-01  8.50457507e-01  8.99754562e-01  9.54251962e-01
  9.54253012e-01  1.01449788e+00  1.06558060e+00  1.06558105e+00
  1.17891472e+00  1.26745901e+00  1.26746049e+00  1.73547661e+00
  1.91983791e+00  1.91983985e+00  1.93337358e+00  2.02479347e+00
  2.02479763e+00  2.04737154e+00  2.09039010e+00  2.18162871e+00
  2.18162930e+00  2.22574446e+00  2.22574533e+00  2.23102985e+00
  2.29614196e+00  2.30200276e+00  2.30200674e+00  2.38111483e+00
  2.38111603e+00  2.48564557e+00  2.54924965e+00  2.54925216e+00
  2.80603209e+00  2.80651387e+00  2.80651912e+00  2.96100048e+00
  3.13715322e+00  3.13716544e+00  3.23190175e+00  3.39111762e+00
  3.39111800e+00  3.42798538e+00  3.53412037e+00  3.53412605e+00
  3.78901135e+00  3.88786891e+00  4.03076467e+00  4.03076595e+00
  4.15499691e+00  4.47328360e+00  4.47328506e+00  5.70725134e+00
  5.70726235e+00  5.79897518e+00  5.95555495e+00  5.95556684e+00
  5.96976122e+00  5.96976919e+00  6.01840264e+00  6.17979169e+00
  6.34952394e+00  6.34952678e+00  6.39921251e+00  6.42819685e+00
  6.42819819e+00  6.61254120e+00  6.62693837e+00  6.62693909e+00
  6.91953772e+00  6.97930632e+00  6.97932370e+00  7.03964875e+00
  7.22721353e+00  7.22721892e+00  7.25806607e+00  7.39179494e+00
  7.39181284e+00  7.51249231e+00  7.56350288e+00  7.63937900e+00
  7.63939350e+00  7.71974303e+00  7.75621689e+00  7.80077886e+00
  7.80079341e+00  7.86350453e+00  7.90184597e+00  7.90185469e+00
  8.01519109e+00  8.01520174e+00  8.06576877e+00  8.21766707e+00
  8.21767175e+00  8.31164879e+00  8.42263347e+00  8.43947991e+00
  8.43948224e+00  8.72088469e+00  8.75341601e+00  8.75342166e+00
  8.91838065e+00  9.07753313e+00  9.07753591e+00  9.36932843e+00
  9.36933166e+00  9.64467485e+00  9.64468152e+00  9.78235122e+00
  9.92836627e+00  1.01534711e+01  1.01667577e+01  1.01667667e+01
  1.12801032e+01  1.13668641e+01  1.13668666e+01  1.18546387e+01
  1.18546530e+01  1.18553747e+01  1.18956425e+01  1.21450695e+01
  1.21450979e+01  1.42301465e+01  1.42301813e+01  1.95647934e+01]
nelec by numeric integration = 7.999997105432408
    CPU time for vxc     33.28 sec, wall time      0.26 sec
    CPU time for df-vj      8.77 sec, wall time      0.07 sec
E1 = -34.85807345716199  Ecoul = 17.906666008933897  Exc = -3.525656530988952
cycle= 5 E= -11.6495190203857  delta_E= -6.82e-06  |g|= 0.000666  |ddm|= 0.0224
    CPU time for cycle= 5     77.77 sec, wall time      0.63 sec
  HOMO = -0.225310561669814  LUMO = -0.0030126258613078
  mo_energy =
[-7.73924488e-01 -4.14762279e-01 -4.14761237e-01 -2.25310562e-01
 -3.01262586e-03  7.33574724e-02  7.33582081e-02  2.10909483e-01
  2.10910371e-01  2.58294157e-01  3.09464102e-01  3.62460897e-01
  3.62462047e-01  3.70970677e-01  3.85399683e-01  3.85401451e-01
  6.50865753e-01  6.68621295e-01  7.26318684e-01  7.26319207e-01
  8.50311433e-01  8.50312436e-01  8.99672506e-01  9.54120063e-01
  9.54121114e-01  1.01442641e+00  1.06543324e+00  1.06543369e+00
  1.17880089e+00  1.26733628e+00  1.26733776e+00  1.73530321e+00
  1.91975029e+00  1.91975223e+00  1.93320979e+00  2.02471143e+00
  2.02471559e+00  2.04727311e+00  2.09025743e+00  2.18149762e+00
  2.18149821e+00  2.22560870e+00  2.22560957e+00  2.23094681e+00
  2.29608653e+00  2.30187069e+00  2.30187467e+00  2.38100476e+00
  2.38100596e+00  2.48552904e+00  2.54911214e+00  2.54911466e+00
  2.80589883e+00  2.80638402e+00  2.80638925e+00  2.96089877e+00
  3.13700011e+00  3.13701235e+00  3.23178708e+00  3.39099710e+00
  3.39099747e+00  3.42786884e+00  3.53395442e+00  3.53396011e+00
  3.78881264e+00  3.88774821e+00  4.03067952e+00  4.03068078e+00
  4.15486541e+00  4.47315467e+00  4.47315612e+00  5.70712227e+00
  5.70713330e+00  5.79887240e+00  5.95548159e+00  5.95549350e+00
  5.96967117e+00  5.96967914e+00  6.01832369e+00  6.17971788e+00
  6.34941806e+00  6.34942091e+00  6.39912797e+00  6.42804979e+00
  6.42805113e+00  6.61242164e+00  6.62681147e+00  6.62681220e+00
  6.91943373e+00  6.97920491e+00  6.97922230e+00  7.03950507e+00
  7.22709165e+00  7.22709704e+00  7.25797373e+00  7.39165651e+00
  7.39167441e+00  7.51240921e+00  7.56339888e+00  7.63926903e+00
  7.63928354e+00  7.71958509e+00  7.75611551e+00  7.80067131e+00
  7.80068586e+00  7.86338854e+00  7.90174301e+00  7.90175173e+00
  8.01508404e+00  8.01509468e+00  8.06564012e+00  8.21756791e+00
  8.21757259e+00  8.31153003e+00  8.42249140e+00  8.43936629e+00
  8.43936861e+00  8.72078928e+00  8.75329043e+00  8.75329608e+00
  8.91823952e+00  9.07740594e+00  9.07740871e+00  9.36925136e+00
  9.36925459e+00  9.64454565e+00  9.64455232e+00  9.78222078e+00
  9.92828975e+00  1.01533606e+01  1.01666485e+01  1.01666575e+01
  1.12800244e+01  1.13667625e+01  1.13667649e+01  1.18545512e+01
  1.18545655e+01  1.18552765e+01  1.18955323e+01  1.21449939e+01
  1.21450223e+01  1.42300648e+01  1.42300995e+01  1.95648436e+01]
nelec by numeric integration = 7.999997107107483
    CPU time for vxc     35.90 sec, wall time      0.28 sec
    CPU time for df-vj      7.89 sec, wall time      0.06 sec
E1 = -34.857681630644734  Ecoul = 17.90620410059444  Exc = -3.525586540933847
cycle= 6 E= -11.6495191121528  delta_E= -9.18e-08  |g|= 0.000111  |ddm|= 0.00187
    CPU time for cycle= 6     77.62 sec, wall time      0.61 sec
  HOMO = -0.225334096723359  LUMO = -0.00302342063993881
  mo_energy =
[-7.73945446e-01 -4.14779147e-01 -4.14778103e-01 -2.25334097e-01
 -3.02342064e-03  7.33467495e-02  7.33474850e-02  2.10901338e-01
  2.10902224e-01  2.58275680e-01  3.09453070e-01  3.62451134e-01
  3.62452283e-01  3.70960302e-01  3.85386940e-01  3.85388708e-01
  6.50853436e-01  6.68611989e-01  7.26307853e-01  7.26308377e-01
  8.50299286e-01  8.50300288e-01  8.99658202e-01  9.54109101e-01
  9.54110151e-01  1.01441041e+00  1.06542132e+00  1.06542177e+00
  1.17878907e+00  1.26732483e+00  1.26732631e+00  1.73528740e+00
  1.91973680e+00  1.91973874e+00  1.93319501e+00  2.02469935e+00
  2.02470351e+00  2.04726250e+00  2.09024644e+00  2.18148635e+00
  2.18148694e+00  2.22559522e+00  2.22559609e+00  2.23093303e+00
  2.29606973e+00  2.30185959e+00  2.30186357e+00  2.38099138e+00
  2.38099258e+00  2.48551312e+00  2.54909785e+00  2.54910037e+00
  2.80588229e+00  2.80636986e+00  2.80637509e+00  2.96088681e+00
  3.13698410e+00  3.13699634e+00  3.23177227e+00  3.39098223e+00
  3.39098261e+00  3.42785503e+00  3.53394170e+00  3.53394739e+00
  3.78880128e+00  3.88773018e+00  4.03066130e+00  4.03066256e+00
  4.15484947e+00  4.47313822e+00  4.47313967e+00  5.70710867e+00
  5.70711969e+00  5.79885737e+00  5.95546954e+00  5.95548145e+00
  5.96965630e+00  5.96966427e+00  6.01831141e+00  6.17969284e+00
  6.34940263e+00  6.34940550e+00  6.39911150e+00  6.42803560e+00
  6.42803695e+00  6.61240817e+00  6.62679397e+00  6.62679469e+00
  6.91942122e+00  6.97918671e+00  6.97920410e+00  7.03948966e+00
  7.22707985e+00  7.22708525e+00  7.25795663e+00  7.39164277e+00
  7.39166067e+00  7.51239297e+00  7.56338477e+00  7.63925772e+00
  7.63927222e+00  7.71957421e+00  7.75610100e+00  7.80065946e+00
  7.80067401e+00  7.86337152e+00  7.90173091e+00  7.90173964e+00
  8.01507032e+00  8.01508096e+00  8.06562914e+00  8.21755039e+00
  8.21755507e+00  8.31151387e+00  8.42247841e+00  8.43935041e+00
  8.43935273e+00  8.72076947e+00  8.75327244e+00  8.75327810e+00
  8.91821927e+00  9.07739004e+00  9.07739280e+00  9.36922965e+00
  9.36923288e+00  9.64452623e+00  9.64453291e+00  9.78220308e+00
  9.92826814e+00  1.01533407e+01  1.01666305e+01  1.01666395e+01
  1.12800040e+01  1.13667435e+01  1.13667459e+01  1.18545272e+01
  1.18545415e+01  1.18552540e+01  1.18955143e+01  1.21449691e+01
  1.21449975e+01  1.42300438e+01  1.42300785e+01  1.95648098e+01]
nelec by numeric integration = 7.999997107165146
    CPU time for vxc     35.54 sec, wall time      0.28 sec
    CPU time for df-vj      8.44 sec, wall time      0.07 sec
E1 = -34.857841562728645  Ecoul = 17.906397093933887  Exc = -3.5256196134434976
cycle= 7 E= -11.649519123407  delta_E= -1.13e-08  |g|= 5.29e-06  |ddm|= 0.000161
    CPU time for cycle= 7     74.21 sec, wall time      0.58 sec
  HOMO = -0.225334197736159  LUMO = -0.00302347572762208
  mo_energy =
[-7.73945486e-01 -4.14779066e-01 -4.14778024e-01 -2.25334198e-01
 -3.02347573e-03  7.33467212e-02  7.33474571e-02  2.10901410e-01
  2.10902298e-01  2.58275549e-01  3.09453120e-01  3.62451154e-01
  3.62452304e-01  3.70960097e-01  3.85387056e-01  3.85388824e-01
  6.50853364e-01  6.68612073e-01  7.26307874e-01  7.26308397e-01
  8.50299218e-01  8.50300221e-01  8.99658094e-01  9.54109006e-01
  9.54110056e-01  1.01441058e+00  1.06542125e+00  1.06542170e+00
  1.17878927e+00  1.26732486e+00  1.26732634e+00  1.73528725e+00
  1.91973704e+00  1.91973898e+00  1.93319503e+00  2.02469970e+00
  2.02470386e+00  2.04726289e+00  2.09024658e+00  2.18148647e+00
  2.18148706e+00  2.22559534e+00  2.22559621e+00  2.23093326e+00
  2.29606978e+00  2.30185970e+00  2.30186368e+00  2.38099144e+00
  2.38099264e+00  2.48551305e+00  2.54909780e+00  2.54910032e+00
  2.80588234e+00  2.80636999e+00  2.80637523e+00  2.96088703e+00
  3.13698416e+00  3.13699639e+00  3.23177233e+00  3.39098223e+00
  3.39098260e+00  3.42785516e+00  3.53394175e+00  3.53394744e+00
  3.78880115e+00  3.88773024e+00  4.03066133e+00  4.03066259e+00
  4.15484947e+00  4.47313819e+00  4.47313964e+00  5.70710892e+00
  5.70711995e+00  5.79885768e+00  5.95547003e+00  5.95548194e+00
  5.96965656e+00  5.96966453e+00  6.01831189e+00  6.17969270e+00
  6.34940280e+00  6.34940566e+00  6.39911172e+00  6.42803577e+00
  6.42803712e+00  6.61240860e+00  6.62679418e+00  6.62679490e+00
  6.91942164e+00  6.97918683e+00  6.97920422e+00  7.03948977e+00
  7.22708027e+00  7.22708566e+00  7.25795683e+00  7.39164306e+00
  7.39166096e+00  7.51239333e+00  7.56338503e+00  7.63925822e+00
  7.63927273e+00  7.71957454e+00  7.75610125e+00  7.80065989e+00
  7.80067443e+00  7.86337173e+00  7.90173142e+00  7.90174014e+00
  8.01507081e+00  8.01508145e+00  8.06562957e+00  8.21755053e+00
  8.21755521e+00  8.31151411e+00  8.42247881e+00  8.43935078e+00
  8.43935310e+00  8.72076957e+00  8.75327278e+00  8.75327844e+00
  8.91821950e+00  9.07739024e+00  9.07739301e+00  9.36922958e+00
  9.36923281e+00  9.64452627e+00  9.64453295e+00  9.78220332e+00
  9.92826823e+00  1.01533408e+01  1.01666306e+01  1.01666396e+01
  1.12800040e+01  1.13667434e+01  1.13667458e+01  1.18545272e+01
  1.18545414e+01  1.18552540e+01  1.18955143e+01  1.21449690e+01
  1.21449974e+01  1.42300437e+01  1.42300785e+01  1.95648091e+01]
nelec by numeric integration = 7.99999710717355
    CPU time for vxc     35.25 sec, wall time      0.28 sec
    CPU time for df-vj      7.50 sec, wall time      0.06 sec
E1 = -34.857845754108155  Ecoul = 17.906401966839148  Exc = -3.52562029497487
cycle= 8 E= -11.6495191234126  delta_E= -5.62e-12  |g|= 1.07e-06  |ddm|= 7.4e-06
    CPU time for cycle= 8    101.16 sec, wall time      0.81 sec
  HOMO = -0.225334691021858  LUMO = -0.00302363136539051
  mo_energy =
[-7.73946002e-01 -4.14779524e-01 -4.14778481e-01 -2.25334691e-01
 -3.02363137e-03  7.33465517e-02  7.33472870e-02  2.10901250e-01
  2.10902138e-01  2.58275307e-01  3.09452911e-01  3.62450987e-01
  3.62452137e-01  3.70959929e-01  3.85386817e-01  3.85388585e-01
  6.50853188e-01  6.68611929e-01  7.26307724e-01  7.26308248e-01
  8.50298991e-01  8.50299993e-01  8.99657857e-01  9.54108821e-01
  9.54109872e-01  1.01441036e+00  1.06542102e+00  1.06542147e+00
  1.17878903e+00  1.26732459e+00  1.26732606e+00  1.73528691e+00
  1.91973678e+00  1.91973872e+00  1.93319471e+00  2.02469950e+00
  2.02470366e+00  2.04726267e+00  2.09024636e+00  2.18148622e+00
  2.18148681e+00  2.22559507e+00  2.22559594e+00  2.23093303e+00
  2.29606948e+00  2.30185948e+00  2.30186346e+00  2.38099116e+00
  2.38099236e+00  2.48551272e+00  2.54909750e+00  2.54910001e+00
  2.80588201e+00  2.80636972e+00  2.80637495e+00  2.96088682e+00
  3.13698383e+00  3.13699606e+00  3.23177204e+00  3.39098191e+00
  3.39098229e+00  3.42785485e+00  3.53394144e+00  3.53394713e+00
  3.78880086e+00  3.88772986e+00  4.03066095e+00  4.03066221e+00
  4.15484911e+00  4.47313775e+00  4.47313920e+00  5.70710860e+00
  5.70711962e+00  5.79885734e+00  5.95546978e+00  5.95548168e+00
  5.96965622e+00  5.96966419e+00  6.01831162e+00  6.17969212e+00
  6.34940237e+00  6.34940522e+00  6.39911130e+00  6.42803543e+00
  6.42803677e+00  6.61240825e+00  6.62679373e+00  6.62679446e+00
  6.91942137e+00  6.97918638e+00  6.97920376e+00  7.03948938e+00
  7.22707997e+00  7.22708536e+00  7.25795642e+00  7.39164271e+00
  7.39166062e+00  7.51239297e+00  7.56338469e+00  7.63925796e+00
  7.63927247e+00  7.71957423e+00  7.75610090e+00  7.80065960e+00
  7.80067414e+00  7.86337131e+00  7.90173111e+00  7.90173983e+00
  8.01507049e+00  8.01508113e+00  8.06562930e+00  8.21755010e+00
  8.21755477e+00  8.31151370e+00  8.42247843e+00  8.43935037e+00
  8.43935269e+00  8.72076908e+00  8.75327234e+00  8.75327800e+00
  8.91821903e+00  9.07738981e+00  9.07739258e+00  9.36922906e+00
  9.36923229e+00  9.64452577e+00  9.64453244e+00  9.78220287e+00
  9.92826770e+00  1.01533402e+01  1.01666301e+01  1.01666391e+01
  1.12800035e+01  1.13667429e+01  1.13667453e+01  1.18545266e+01
  1.18545409e+01  1.18552534e+01  1.18955138e+01  1.21449684e+01
  1.21449968e+01  1.42300432e+01  1.42300779e+01  1.95648082e+01]
nelec by numeric integration = 7.9999971071800315
    CPU time for vxc     36.09 sec, wall time      0.28 sec
    CPU time for df-vj      7.99 sec, wall time      0.06 sec
E1 = -34.857850580604996  Ecoul = 17.9064078187461  Exc = -3.5256213203843116
Extra cycle  E= -11.6495191234119  delta_E= 6.68e-13  |g|= 1.89e-06  |ddm|= 4.99e-06
    CPU time for scf_cycle   1008.48 sec, wall time      8.24 sec
    CPU time for SCF   1008.94 sec, wall time      8.24 sec
converged SCF energy = -11.6495191234119
