#INFO: **** input file is /home/nkousuke/lustre/toBeSync/turboRVB/05turbo-genius-development/turbogenius_paper/04data/sanity_checks/02pyscf_prep_LDA_via_trexio/00open_boundary/results/Li2/pyscf-LDA-workflow/run.py ****

from pyscf_wrapper import Pyscf_wrapper

# input variables
pyscf_chkfile="pyscf.chk"
structure_file="Li2.xyz"

# input variables
omp_num_threads=128
charge=0
spin=0
basis="ccecp-ccpvqz"
ecp="ccecp"
scf_method="DFT"
dft_xc="LDA_X,LDA_C_PZ"
solver_newton=False
MP2_flag=False
CCSD_flag=False
pyscf_output="out.pyscf"
twist_average=False
exp_to_discard=0.1
kpt=[0.0, 0.0, 0.0]
kpt_grid=[1, 1, 1]
smearing_method="fermi"
smearing_sigma=0.0

pyscf_calc=Pyscf_wrapper(
                        structure_file=structure_file,
                        chkfile=pyscf_chkfile,
                        )

pyscf_calc.run_pyscf(
                  omp_num_threads=omp_num_threads,
                  charge=charge,
                  spin=spin,
                  basis=basis,
                  ecp=ecp,
                  scf_method=scf_method,
                  dft_xc=dft_xc,
                  solver_newton=solver_newton,
                  MP2_flag=MP2_flag,
                  CCSD_flag=CCSD_flag,
                  pyscf_output=pyscf_output,
                  twist_average=twist_average,
                  exp_to_discard=exp_to_discard,
                  kpt=kpt,
                  kpt_grid=kpt_grid,
                  smearing_method=smearing_method,
                  smearing_sigma=smearing_sigma
                  )
                #INFO: ******************** input file end ********************


System: uname_result(system='Linux', node='spcc-104', release='5.4.0-66-generic', version='#74-Ubuntu SMP Wed Jan 27 22:54:38 UTC 2021', machine='x86_64', processor='x86_64')  Threads 128
Python 3.7.3 (default, Mar 27 2019, 22:11:17) 
[GCC 7.3.0]
numpy 1.21.6  scipy 1.7.3
Date: Wed Dec 28 11:29:34 2022
PySCF version 2.1.1
PySCF path  /home/nkousuke/application/anaconda3/lib/python3.7/site-packages/pyscf

[CONFIG] conf_file /home/nkousuke/.pyscf_conf.py
[INPUT] verbose = 5
[INPUT] max_memory = 505149.7890625 
[INPUT] num. atoms = 2
[INPUT] num. electrons = 2
[INPUT] charge = 0
[INPUT] spin (= nelec alpha-beta = 2S) = 0
[INPUT] symmetry False subgroup None
[INPUT] Mole.unit = A
[INPUT] Symbol           X                Y                Z      unit          X                Y                Z       unit  Magmom
[INPUT]  1 Li     0.000000000000   0.000000000000   1.336650000000 AA    0.000000000000   0.000000000000   2.525902424400 Bohr   0.0
[INPUT]  2 Li     0.000000000000   0.000000000000  -1.336650000000 AA    0.000000000000   0.000000000000  -2.525902424400 Bohr   0.0
[INPUT] ---------------- BASIS SET ---------------- 
[INPUT] l, kappa, [nprim/nctr], expnt,             c_1 c_2 ...
[INPUT] Li
[INPUT] 0    0    [10   /1   ]  16.001258         4.34e-05
                                7.583113          -0.0007531
                                3.593693          -0.0002519
                                1.703077          0.0169674
                                0.807101          -0.0909921
                                0.382491          -0.0893155
                                0.181265          0.0294155
                                0.085903          0.364402
                                0.04071           0.5504973
                                0.019293          0.1744412
[INPUT] 0    0    [1    /1   ]  0.519693             1
[INPUT] 0    0    [1    /1   ]  0.10977              1
[INPUT] 0    0    [1    /1   ]  0.024834             1
[INPUT] 1    0    [10   /1   ]  7.004881          -0.0005306
                                3.451199          0.0012949
                                1.700353          0.0070115
                                0.837738          0.0171604
                                0.412741          0.036724
                                0.203351          0.0965042
                                0.100188          0.2211013
                                0.049361          0.3835358
                                0.02432           0.3350564
                                0.011982          0.0781453
[INPUT] 1    0    [1    /1   ]  0.207505             1
[INPUT] 1    0    [1    /1   ]  0.115823             1
[INPUT] 1    0    [1    /1   ]  0.070662             1
[INPUT] 2    0    [1    /1   ]  0.21499              1
[INPUT] 2    0    [1    /1   ]  0.089353             1
[INPUT] 2    0    [1    /1   ]  0.029817             1
[INPUT] 3    0    [1    /1   ]  0.240323             1
[INPUT] 3    0    [1    /1   ]  0.09993              1
[INPUT] 4    0    [1    /1   ]  0.19957              1

nuclear repulsion = 0.197949055818651
number of shells = 28
number of NR pGTOs = 180
number of NR cGTOs = 108
basis = ccecp-ccpvqz
ecp = ccecp
CPU time:         1.97


******** <class 'pyscf.df.df_jk.density_fit.<locals>.DensityFitting'> ********
method = DensityFitting-RKS
initial guess = minao
damping factor = 0
level_shift factor = 0
DIIS = <class 'pyscf.scf.diis.CDIIS'>
diis_start_cycle = 1
diis_space = 8
SCF conv_tol = 1e-09
SCF conv_tol_grad = None
SCF max_cycles = 200
direct_scf = True
direct_scf_tol = 1e-13
chkfile to save SCF result = pyscf.chk
max_memory 505149 MB (current use 102 MB)
XC library pyscf.dft.libxc version 5.2.0
    S. Lehtola, C. Steigemann, M. J. Oliveira, and M. A. Marques, SoftwareX 7, 1 (2018)
XC functionals = LDA_X,LDA_C_PZ
    P. A. M. Dirac, Math. Proc. Cambridge Philos. Soc. 26, 376 (1930)
    F. Bloch, Z. Phys. 57, 545 (1929)
    J. P. Perdew and A. Zunger, Phys. Rev. B 23, 5048 (1981)
radial grids: 
    Treutler-Ahlrichs [JCP 102, 346 (1995); DOI:10.1063/1.469408] (M4) radial grids
    
becke partition: Becke, JCP 88, 2547 (1988); DOI:10.1063/1.454033
pruning grids: <function nwchem_prune at 0x145844f931e0>
grids dens level: 3
symmetrized grids: False
atomic radii adjust function: <function treutler_atomic_radii_adjust at 0x145844f930d0>
small_rho_cutoff = 1e-07
Set gradient conv threshold to 3.16228e-05
atom Li rad-grids = 75, ang-grids = [ 50  50  50  50  50  50  50  50  50  50  50  50  50  50  50  50  50  50
  50  50  50  50  50  50  50  50  50  50  50  86  86  86  86  86  86  86
  86  86  86  86  86 266 266 266 266 266 266 266 266 266 302 302 302 302
 302 302 302 302 302 302 302 302 302 302 302 302 302 302 302 302 266 266
 266 266 266]
tot_boxes 1053, boxes in each direction [ 7  7 11]
Padding 4 grids
tot grids = 24496
Drop grids 754
prune_by_density_: 2 padding grids
    CPU time for setting up grids     13.72 sec, wall time      0.15 sec
nelec by numeric integration = 1.9999998694529224
    CPU time for vxc     14.13 sec, wall time      0.13 sec
Even tempered Gaussians are generated as DF auxbasis for  Li
  ETB auxbasis for Li  [[0, [2.469504, 1]], [0, [1.234752, 1]], [0, [0.617376, 1]], [0, [0.308688, 1]], [0, [0.154344, 1]], [0, [0.077172, 1]], [0, [0.038586, 1]], [1, [3.892283857471857, 1]], [1, [1.9461419287359285, 1]], [1, [0.9730709643679643, 1]], [1, [0.4865354821839821, 1]], [1, [0.24326774109199106, 1]], [1, [0.12163387054599553, 1]], [1, [0.060816935272997766, 1]], [1, [0.030408467636498883, 1]], [2, [6.134784, 1]], [2, [3.067392, 1]], [2, [1.533696, 1]], [2, [0.766848, 1]], [2, [0.383424, 1]], [2, [0.191712, 1]], [2, [0.095856, 1]], [2, [0.047928, 1]], [2, [0.023964, 1]]]
num shells = 48, num cGTOs = 152
    CPU time for df-vj     10.36 sec, wall time      0.09 sec
E1 = -0.7547960363030192  Ecoul = 0.40479880784389  Exc = -0.23223499999327224
init E= -0.38428317263375
cond(S) = 136996.97128836432
    CPU time for initialize scf     58.59 sec, wall time      0.67 sec
  HOMO = -0.148424880166288  LUMO = -0.0772598018600019
  mo_energy =
[-0.14842488 -0.0772598  -0.06710921 -0.06710921 -0.04722115 -0.00769696
 -0.00769696  0.01720621  0.0259992   0.0259992   0.03452369  0.04065551
  0.04065551  0.05610232  0.06196327  0.06679086  0.06679086  0.06782546
  0.06782546  0.07997203  0.07997203  0.15329832  0.18030289  0.18030291
  0.18077592  0.19116453  0.19116453  0.23051721  0.24004668  0.24004674
  0.24917568  0.25364458  0.25364458  0.25830055  0.25830055  0.25963546
  0.25963546  0.27878187  0.29142476  0.29142476  0.30477872  0.30477879
  0.33670443  0.33670443  0.34781002  0.41370397  0.41370397  0.42611943
  0.43399978  0.43399982  0.45753541  0.52143352  0.53053177  0.53053177
  0.67738286  0.67738286  0.69380016  0.69380028  0.6969789   0.6969789
  0.70090017  0.7141969   0.7141969   0.73189289  0.74577849  0.74601223
  0.74601237  0.74912313  0.74912313  0.81706456  0.82712209  0.82712209
  0.85616469  0.8561679   0.90484505  0.90484509  0.91901916  0.91901916
  0.93589404  0.93589781  0.95838032  1.01875102  1.01875102  1.02618078
  1.02618078  1.06140075  1.06212835  1.06212835  1.07894549  1.07894549
  1.08483283  1.08483434  1.09093873  1.10146647  1.10146835  1.16126707
  1.16126707  1.28242164  1.29130983  1.29130983  1.34921018  1.3492107
  1.36804745  1.43839843  1.61702126  1.61702126  2.37319903  3.12999197]
nelec by numeric integration = 2.0000003577978775
    CPU time for vxc     13.51 sec, wall time      0.12 sec
    CPU time for df-vj      4.24 sec, wall time      0.04 sec
E1 = -0.8543243710152599  Ecoul = 0.5260465735773822  Exc = -0.28789628808908313
cycle= 1 E= -0.41822502970831  delta_E= -0.0339  |g|= 0.0581  |ddm|= 1.28
    CPU time for cycle= 1     19.77 sec, wall time      0.17 sec
  HOMO = -0.0942830120922154  LUMO = -0.0501488017083009
  mo_energy =
[-0.09428301 -0.0501488  -0.03075256 -0.03075256 -0.01137062  0.01572837
  0.01572837  0.03791999  0.04500131  0.04500137  0.05055656  0.06268326
  0.06268326  0.07701898  0.07826083  0.08200547  0.08200575  0.08514079
  0.08514079  0.10482053  0.10482053  0.1828466   0.21427374  0.21427377
  0.2227012   0.22513565  0.22513565  0.25411407  0.26716854  0.26716862
  0.27575728  0.27935728  0.27935728  0.28903876  0.28903876  0.29285874
  0.29285874  0.30654566  0.32241622  0.32241622  0.33300743  0.33300749
  0.36333216  0.36333216  0.38916707  0.44514594  0.44514594  0.45624914
  0.46066941  0.46066943  0.48575205  0.55682667  0.5574911   0.5574911
  0.73420687  0.73420687  0.73746975  0.73746975  0.73974156  0.74484152
  0.74484167  0.75901897  0.75901897  0.78514175  0.78652994  0.79077755
  0.79077765  0.79250529  0.79250529  0.86014618  0.87441008  0.87441008
  0.89632287  0.89632581  0.95150543  0.95150543  0.96231832  0.96231835
  0.97392522  0.97392867  0.99919437  1.06222812  1.06222812  1.07570479
  1.07570479  1.09512359  1.09983612  1.09983612  1.12103746  1.12103891
  1.124994    1.124994    1.12915759  1.13721606  1.13721802  1.19391453
  1.19391453  1.32574366  1.33503805  1.33503805  1.40042676  1.40042732
  1.42697143  1.50682411  1.68036217  1.68036217  2.44846053  3.2043332 ]
nelec by numeric integration = 1.9999999198530571
    CPU time for vxc     12.94 sec, wall time      0.11 sec
    CPU time for df-vj      4.35 sec, wall time      0.04 sec
E1 = -0.8033114322761242  Ecoul = 0.4214048925420522  Exc = -0.23679445672574884
cycle= 2 E= -0.42075194064117  delta_E= -0.00253  |g|= 0.0424  |ddm|= 0.405
    CPU time for cycle= 2     19.22 sec, wall time      0.17 sec
  HOMO = -0.118561077763469  LUMO = -0.0640060039356099
  mo_energy =
[-0.11856108 -0.064006   -0.04785108 -0.04785108 -0.02959271  0.00387702
  0.00387702  0.02630423  0.03465323  0.03465326  0.04138509  0.05116736
  0.05116736  0.0651862   0.06900652  0.07345175  0.07345186  0.07503859
  0.07503859  0.09205544  0.09205544  0.16783047  0.19774091  0.19774092
  0.20163962  0.20797134  0.20797134  0.24144219  0.25355259  0.25355259
  0.2623164   0.26576293  0.26576293  0.27371328  0.27371328  0.27628892
  0.27628892  0.29205585  0.30676088  0.30676088  0.31833297  0.31833304
  0.34978479  0.34978479  0.36892017  0.42894806  0.42894806  0.4403364
  0.44673597  0.44673604  0.47134603  0.53897934  0.54330816  0.54330816
  0.70691501  0.70691501  0.71872807  0.71872807  0.72080712  0.72080725
  0.72109695  0.73785295  0.73785295  0.76007399  0.76530263  0.76957537
  0.76957549  0.77134475  0.77134475  0.83933537  0.85185843  0.85185843
  0.87721185  0.87721475  0.9349521   0.93495214  0.93551119  0.93551119
  0.955747    0.9557504   0.98059262  1.04144597  1.04144597  1.05162208
  1.05162208  1.07834374  1.08228785  1.08228785  1.1023006   1.1023006
  1.10296427  1.10296581  1.10993571  1.11938049  1.11938256  1.1772056
  1.1772056   1.30452291  1.31326561  1.31326561  1.3756961   1.37569673
  1.39843563  1.47405614  1.65003594  1.65003594  2.41579386  3.17227247]
nelec by numeric integration = 2.000000114809254
    CPU time for vxc     12.67 sec, wall time      0.11 sec
    CPU time for df-vj      4.48 sec, wall time      0.04 sec
E1 = -0.8300342334057738  Ecoul = 0.46537018269453295  Exc = -0.2581798020868982
cycle= 3 E= -0.424894796979488  delta_E= -0.00414  |g|= 0.00119  |ddm|= 0.209
    CPU time for cycle= 3     19.11 sec, wall time      0.17 sec
  HOMO = -0.117886058472992  LUMO = -0.0638816005342883
  mo_energy =
[-0.11788606 -0.0638816  -0.04724385 -0.04724385 -0.02947458  0.0041454
  0.0041454   0.02660542  0.03504053  0.03504053  0.04159725  0.05149411
  0.05149411  0.06532098  0.06914344  0.07366981  0.07366983  0.07530395
  0.07530395  0.09241709  0.09241709  0.16813183  0.19839567  0.19839568
  0.2020352   0.20830339  0.20830339  0.24159888  0.25395998  0.25396002
  0.26243067  0.26588179  0.26588179  0.27433369  0.27433369  0.27680444
  0.27680444  0.29220501  0.30721239  0.30721239  0.31868523  0.3186853
  0.35024213  0.35024213  0.36925374  0.4292593   0.4292593   0.44068368
  0.44708885  0.44708891  0.47168351  0.53928938  0.54360026  0.54360026
  0.70744571  0.70744571  0.7192918   0.7192918   0.72125242  0.72156719
  0.72156733  0.73847582  0.73847582  0.76056939  0.76557292  0.77028472
  0.77028482  0.7718799   0.7718799   0.83948939  0.85255946  0.85255946
  0.877972    0.87797491  0.93566471  0.93566475  0.9358404   0.9358404
  0.95645472  0.95645814  0.9810199   1.04218213  1.04218213  1.05192319
  1.05192319  1.07853502  1.08283975  1.08283975  1.10305903  1.10305903
  1.10331086  1.10331239  1.11005808  1.11965521  1.11965729  1.17730782
  1.17730782  1.30496744  1.31363035  1.31363035  1.37632333  1.37632396
  1.39880548  1.4744668   1.65059741  1.65059741  2.41656818  3.17303738]
nelec by numeric integration = 2.0000001094824227
    CPU time for vxc     13.28 sec, wall time      0.11 sec
    CPU time for df-vj      4.49 sec, wall time      0.04 sec
E1 = -0.8294591819737535  Ecoul = 0.46426282803724483  Exc = -0.25765137138462374
cycle= 4 E= -0.424898669502481  delta_E= -3.87e-06  |g|= 0.00029  |ddm|= 0.00652
    CPU time for cycle= 4     19.77 sec, wall time      0.17 sec
  HOMO = -0.117921827755351  LUMO = -0.0640145314637307
  mo_energy =
[-0.11792183 -0.06401453 -0.04723442 -0.04723442 -0.02964993  0.00409001
  0.00409001  0.02657694  0.03504966  0.03504966  0.04153172  0.05146568
  0.05146568  0.06521458  0.06907263  0.07363957  0.07363957  0.07527063
  0.07527063  0.09239448  0.09239448  0.16804864  0.19842669  0.19842671
  0.2019507   0.20821511  0.20821511  0.24148266  0.25394165  0.2539417
  0.26230638  0.26574475  0.26574475  0.27436425  0.27436425  0.27679909
  0.27679909  0.29208444  0.30719815  0.30719815  0.3186217   0.31862177
  0.35024084  0.35024084  0.36914395  0.42916198  0.42916198  0.44061858
  0.44703348  0.44703354  0.47163164  0.5391857   0.54352022  0.54352022
  0.7073545   0.7073545   0.71928841  0.71928841  0.72109051  0.7215806
  0.72158074  0.73847077  0.73847077  0.76046682  0.76547083  0.77031092
  0.77031102  0.77184684  0.77184684  0.83932002  0.85253823  0.85253823
  0.87801544  0.87801836  0.93561773  0.93561777  0.93577756  0.93577756
  0.95649345  0.95649687  0.98095495  1.04221508  1.04221508  1.05177517
  1.05177517  1.07840859  1.08283552  1.08283552  1.10306841  1.10306841
  1.10322289  1.10322442  1.1098812   1.11954684  1.11954891  1.17714434
  1.17714434  1.30487914  1.31351759  1.31351759  1.37627265  1.37627328
  1.39865945  1.47431112  1.65049768  1.65049768  2.4165517   3.17302441]
nelec by numeric integration = 2.000000109323658
    CPU time for vxc     12.77 sec, wall time      0.11 sec
    CPU time for df-vj      4.46 sec, wall time      0.04 sec
E1 = -0.8294551533741142  Ecoul = 0.4642643113065605  Exc = -0.25765701924301576
cycle= 5 E= -0.424898805491918  delta_E= -1.36e-07  |g|= 9.04e-06  |ddm|= 0.00112
    CPU time for cycle= 5     19.22 sec, wall time      0.16 sec
  HOMO = -0.117924957225923  LUMO = -0.0640212475895656
  mo_energy =
[-0.11792496 -0.06402125 -0.04723511 -0.04723511 -0.02965907  0.00408787
  0.00408787  0.0265775   0.03505162  0.03505162  0.04152619  0.05146427
  0.05146427  0.06520809  0.0690709   0.07364026  0.07364026  0.07527052
  0.07527052  0.09239341  0.09239341  0.16804292  0.19842672  0.19842673
  0.20194676  0.20820992  0.20820992  0.24147514  0.25394121  0.25394126
  0.26230042  0.2657369   0.2657369   0.27436403  0.27436403  0.27679824
  0.27679824  0.29207895  0.30719772  0.30719772  0.31861735  0.31861742
  0.35024104  0.35024104  0.36913813  0.42915531  0.42915531  0.44061461
  0.4470294   0.44702946  0.47162905  0.53917932  0.54351495  0.54351495
  0.70734996  0.70734996  0.7192874   0.7192874   0.72108276  0.72157972
  0.72157986  0.73846932  0.73846932  0.76046159  0.76546741  0.77031121
  0.77031131  0.77184487  0.77184487  0.83931189  0.85253424  0.85253424
  0.8780154   0.87801832  0.93561358  0.93561362  0.93577438  0.93577438
  0.95649395  0.95649737  0.98095274  1.04221543  1.04221543  1.05176827
  1.05176827  1.07840283  1.08283529  1.08283529  1.1030659   1.1030659
  1.10321793  1.10321947  1.10987251  1.11954153  1.1195436   1.17713639
  1.17713639  1.30487305  1.31351157  1.31351157  1.3762685   1.37626913
  1.39865378  1.47430632  1.65049355  1.65049355  2.41655074  3.17302394]
nelec by numeric integration = 2.0000001093208524
    CPU time for vxc     13.07 sec, wall time      0.11 sec
    CPU time for df-vj      4.90 sec, wall time      0.04 sec
E1 = -0.82945552371034  Ecoul = 0.464265503409957  Exc = -0.25765784118885726
cycle= 6 E= -0.424898805670589  delta_E= -1.79e-10  |g|= 6.29e-07  |ddm|= 0.000108
    CPU time for cycle= 6     19.95 sec, wall time      0.17 sec
  HOMO = -0.117924257261065  LUMO = -0.0640207406091956
  mo_energy =
[-0.11792426 -0.06402074 -0.04723456 -0.04723456 -0.02965851  0.00408835
  0.00408835  0.026578    0.03505211  0.03505211  0.04152635  0.05146466
  0.05146466  0.06520835  0.06907134  0.0736407   0.0736407   0.07527098
  0.07527098  0.09239381  0.09239381  0.16804331  0.19842723  0.19842724
  0.20194738  0.20821047  0.20821047  0.24147547  0.25394171  0.25394177
  0.26230086  0.26573739  0.26573739  0.27436453  0.27436453  0.27679877
  0.27679877  0.29207949  0.30719825  0.30719825  0.3186179   0.31861797
  0.35024157  0.35024157  0.36913871  0.42915583  0.42915583  0.44061512
  0.44702991  0.44702998  0.47162944  0.53917981  0.54351545  0.54351545
  0.70735074  0.70735074  0.71928789  0.71928789  0.72108328  0.72158037
  0.72158051  0.73846991  0.73846991  0.76046234  0.76546794  0.77031179
  0.7703119   0.7718455   0.7718455   0.83931252  0.85253488  0.85253488
  0.87801593  0.87801885  0.93561432  0.93561436  0.93577486  0.93577486
  0.95649448  0.9564979   0.98095304  1.04221601  1.04221601  1.05176898
  1.05176898  1.07840332  1.08283586  1.08283586  1.1030665   1.1030665
  1.10321852  1.10322006  1.1098731   1.11954213  1.11954421  1.17713694
  1.17713694  1.30487363  1.31351221  1.31351221  1.37626919  1.37626981
  1.39865459  1.47430722  1.65049439  1.65049439  2.41655148  3.17302465]
nelec by numeric integration = 2.0000001093170416
    CPU time for vxc     12.93 sec, wall time      0.11 sec
    CPU time for df-vj      4.67 sec, wall time      0.04 sec
E1 = -0.8294550756390902  Ecoul = 0.4642646272666094  Exc = -0.2576574131170369
Extra cycle  E= -0.424898805670867  delta_E= -2.77e-13  |g|= 3.88e-07  |ddm|= 3.83e-06
    CPU time for scf_cycle    195.17 sec, wall time      1.85 sec
    CPU time for SCF    195.18 sec, wall time      1.85 sec
converged SCF energy = -0.424898805670867
