#INFO: **** input file is /home/nkousuke/lustre/toBeSync/turboRVB/05turbo-genius-development/turbogenius_paper/04data/sanity_checks/03pyscf_HF_turbo_VMC_via_trexio/00open_boundary/results/H3COH/pyscf-HF-workflow/run.py ****

from pyscf_wrapper import Pyscf_wrapper

# input variables
pyscf_chkfile="pyscf.chk"
structure_file="H3COH.xyz"

# input variables
omp_num_threads=128
charge=0
spin=0
basis="ccecp-ccpvqz"
ecp="ccecp"
scf_method="HF"
dft_xc="NA"
solver_newton=False
MP2_flag=False
CCSD_flag=False
pyscf_output="out.pyscf"
twist_average=False
exp_to_discard=0.0
kpt=[0.0, 0.0, 0.0]
kpt_grid=[1, 1, 1]
smearing_method="fermi"
smearing_sigma=0.0

pyscf_calc=Pyscf_wrapper(
                        structure_file=structure_file,
                        chkfile=pyscf_chkfile,
                        )

pyscf_calc.run_pyscf(
                  omp_num_threads=omp_num_threads,
                  charge=charge,
                  spin=spin,
                  basis=basis,
                  ecp=ecp,
                  scf_method=scf_method,
                  dft_xc=dft_xc,
                  solver_newton=solver_newton,
                  MP2_flag=MP2_flag,
                  CCSD_flag=CCSD_flag,
                  pyscf_output=pyscf_output,
                  twist_average=twist_average,
                  exp_to_discard=exp_to_discard,
                  kpt=kpt,
                  kpt_grid=kpt_grid,
                  smearing_method=smearing_method,
                  smearing_sigma=smearing_sigma
                  )
                #INFO: ******************** input file end ********************


System: uname_result(system='Linux', node='spcc-200', release='5.4.0-66-generic', version='#74-Ubuntu SMP Wed Jan 27 22:54:38 UTC 2021', machine='x86_64', processor='x86_64')  Threads 128
Python 3.7.3 (default, Mar 27 2019, 22:11:17) 
[GCC 7.3.0]
numpy 1.20.1  scipy 1.7.3
Date: Mon Dec 19 18:02:39 2022
PySCF version 2.0.1
PySCF path  /home/nkousuke/application/anaconda3/lib/python3.7/site-packages/pyscf

[CONFIG] conf_file /home/nkousuke/.pyscf_conf.py
[INPUT] verbose = 5
[INPUT] max_memory = 507546.6875 
[INPUT] num. atoms = 6
[INPUT] num. electrons = 14
[INPUT] charge = 0
[INPUT] spin (= nelec alpha-beta = 2S) = 0
[INPUT] symmetry False subgroup None
[INPUT] Mole.unit = A
[INPUT]  1 C     -0.046423000000   0.663069000000   0.000000000000 AA   -0.087726755881   1.253018811689   0.000000000000 Bohr
[INPUT]  2 O     -0.046423000000  -0.755063000000   0.000000000000 AA   -0.087726755881  -1.426862276792   0.000000000000 Bohr
[INPUT]  3 H     -1.086956000000   0.975938000000   0.000000000000 AA   -2.054049149453   1.844255534556   0.000000000000 Bohr
[INPUT]  4 H      0.860592000000  -1.057039000000   0.000000000000 AA    1.626283184992  -1.997514212984   0.000000000000 Bohr
[INPUT]  5 H      0.438145000000   1.071594000000   0.889539000000 AA    0.827974052848   2.025019176727   1.680985087119 Bohr
[INPUT]  6 H      0.438145000000   1.071594000000  -0.889539000000 AA    0.827974052848   2.025019176727  -1.680985087119 Bohr
[INPUT] ---------------- BASIS SET ---------------- 
[INPUT] l, kappa, [nprim/nctr], expnt,             c_1 c_2 ...
[INPUT] C
[INPUT] 0    0    [9    /1   ]  13.073594         0.0051583
                                6.541187          0.0603424
                                4.573411          -0.1978471
                                1.637494          -0.081034
                                0.819297          0.2321726
                                0.409924          0.2914643
                                0.2313            0.4336405
                                0.102619          0.213194
                                0.051344          0.0049848
[INPUT] 0    0    [1    /1   ]  0.846879             1
[INPUT] 0    0    [1    /1   ]  0.269659             1
[INPUT] 0    0    [1    /1   ]  0.109576             1
[INPUT] 1    0    [9    /1   ]  9.934169          0.0209076
                                3.886955          0.0572698
                                1.871016          0.1122682
                                0.935757          0.2130082
                                0.468003          0.2835815
                                0.239473          0.3011207
                                0.117063          0.2016934
                                0.058547          0.0453575
                                0.029281          0.0029775
[INPUT] 1    0    [1    /1   ]  0.804681             1
[INPUT] 1    0    [1    /1   ]  0.313254             1
[INPUT] 1    0    [1    /1   ]  0.105389             1
[INPUT] 2    0    [1    /1   ]  2.01376              1
[INPUT] 2    0    [1    /1   ]  0.684884             1
[INPUT] 2    0    [1    /1   ]  0.240171             1
[INPUT] 3    0    [1    /1   ]  0.457302             1
[INPUT] 3    0    [1    /1   ]  1.32493              1
[INPUT] 4    0    [1    /1   ]  1.03418              1
[INPUT] H
[INPUT] 0    0    [8    /1   ]  23.843185         0.0041149
                                10.212443         0.0104644
                                4.374164          0.0280111
                                1.873529          0.0758862
                                0.802465          0.1821062
                                0.343709          0.3485214
                                0.147217          0.3782313
                                0.063055          0.1164241
[INPUT] 0    0    [1    /1   ]  0.081856             1
[INPUT] 0    0    [1    /1   ]  0.233254             1
[INPUT] 0    0    [1    /1   ]  0.664673             1
[INPUT] 1    0    [1    /1   ]  0.284469             1
[INPUT] 1    0    [1    /1   ]  0.847159             1
[INPUT] 1    0    [1    /1   ]  2.522868             1
[INPUT] 2    0    [1    /1   ]  0.665279             1
[INPUT] 2    0    [1    /1   ]  2.048739             1
[INPUT] 3    0    [1    /1   ]  1.42146              1
[INPUT] O
[INPUT] 0    0    [9    /1   ]  54.775216         -0.0012444
                                25.616801         0.010733
                                11.980245         0.0018889
                                6.992317          -0.1742537
                                2.620277          0.0017622
                                1.225429          0.3161846
                                0.577797          0.4512023
                                0.268022          0.3121534
                                0.125346          0.0511167
[INPUT] 0    0    [1    /1   ]  1.351771             1
[INPUT] 0    0    [1    /1   ]  0.843157             1
[INPUT] 0    0    [1    /1   ]  0.22438              1
[INPUT] 1    0    [9    /1   ]  22.217266         0.0104866
                                10.74755          0.0366435
                                5.315785          0.0803674
                                2.660761          0.162701
                                1.331816          0.2377791
                                0.678626          0.2811422
                                0.333673          0.2643189
                                0.167017          0.1466014
                                0.083598          0.0458145
[INPUT] 1    0    [1    /1   ]  1.106737             1
[INPUT] 1    0    [1    /1   ]  0.452364             1
[INPUT] 1    0    [1    /1   ]  0.148562             1
[INPUT] 2    0    [1    /1   ]  4.008867             1
[INPUT] 2    0    [1    /1   ]  1.344331             1
[INPUT] 2    0    [1    /1   ]  0.455711             1
[INPUT] 3    0    [1    /1   ]  2.763115             1
[INPUT] 3    0    [1    /1   ]  0.876289             1
[INPUT] 4    0    [1    /1   ]  1.759081             1

nuclear repulsion = 25.3369606455445
number of shells = 68
number of NR pGTOs = 320
number of NR cGTOs = 228
basis = ccecp-ccpvqz
ecp = ccecp
CPU time:         7.15


******** <class 'pyscf.scf.hf.RHF'> ********
method = RHF
initial guess = minao
damping factor = 0
level_shift factor = 0
DIIS = <class 'pyscf.scf.diis.CDIIS'>
diis_start_cycle = 1
diis_space = 8
SCF conv_tol = 1e-09
SCF conv_tol_grad = None
SCF max_cycles = 200
direct_scf = True
direct_scf_tol = 1e-13
chkfile to save SCF result = pyscf.chk
max_memory 507546 MB (current use 105 MB)
Set gradient conv threshold to 3.16228e-05
E1 = -85.65933954173758  E_coul = 37.02001948818826
init E= -23.3023594080048
cond(S) = 68190.96347843159
    CPU time for initialize scf    274.55 sec, wall time      2.41 sec
  HOMO = -0.38371336748179  LUMO = 0.0624878944055105
  mo_energy =
[-1.74646512 -1.15584312 -0.74398527 -0.61005514 -0.60463863 -0.43442046
 -0.38371337  0.06248789  0.0984787   0.15416     0.15934315  0.18977873
  0.27847842  0.28526306  0.35987137  0.37156873  0.39823026  0.42382663
  0.43219964  0.45948801  0.46236332  0.4928063   0.54182357  0.59632458
  0.62900881  0.66175049  0.78765959  0.8171944   0.85023254  0.86751193
  0.89890598  0.92706558  0.9442823   0.95713182  1.06475017  1.07333907
  1.10097938  1.12034359  1.13377321  1.15789664  1.16597159  1.30268777
  1.30764482  1.35414662  1.39929315  1.50723766  1.51362374  1.58509691
  1.60938561  1.80002484  1.87577862  1.88437375  1.93629891  1.99839254
  2.01958275  2.02160641  2.03806598  2.08239837  2.08662068  2.09857543
  2.1650673   2.25619471  2.2578825   2.31323048  2.37777218  2.43048213
  2.44689785  2.44802224  2.49754769  2.5281042   2.56513442  2.60219515
  2.61663492  2.64214571  2.66843082  2.71915238  2.77481122  2.83069491
  2.84912737  2.8830039   2.96840983  2.97726598  3.06821251  3.07669436
  3.10554672  3.15446063  3.22848308  3.320607    3.35956131  3.36358411
  3.43201259  3.44033397  3.49279912  3.51432695  3.58559675  3.65323239
  3.7171116   3.82215678  3.91763371  4.06097761  4.0955815   4.13183925
  4.16047323  4.19668588  4.31013572  4.32611524  4.38908706  4.4525506
  4.56042277  4.69483065  4.86611454  4.96262553  5.13690618  5.45972007
  5.52967561  5.54484463  5.6199632   5.70942023  5.73653973  5.76450272
  5.80017808  5.91441393  5.9935861   6.14630396  6.15698175  6.16396516
  6.24645796  6.25944687  6.27483543  6.35687949  6.39637655  6.40727813
  6.46730421  6.47769664  6.53541635  6.55948046  6.62529548  6.62745647
  6.66717756  6.90840461  6.91532033  6.96673107  7.05920889  7.07298008
  7.10302872  7.11546691  7.26675067  7.41798347  7.42451753  7.46233528
  7.50674208  7.66793654  7.68288821  7.74077304  7.75681532  7.79511454
  7.81110464  7.8652986   7.88572381  7.96370956  7.9759066   7.99011441
  8.02932613  8.03102565  8.05645179  8.05757598  8.10786129  8.11649146
  8.21081249  8.23508333  8.35012669  8.42469605  8.46793009  8.54097938
  8.54611094  8.64662949  8.66269455  8.70643142  8.71039053  8.72468217
  8.75660642  8.88542073  8.91818586  8.98862728  9.08582733  9.27648775
  9.34812917  9.39587929  9.40703695  9.44311071  9.47594484  9.52094137
  9.63232441  9.74914715  9.94502413 10.06496427 10.29881553 10.32386347
 10.36626772 10.3967518  10.46031168 10.52790495 10.54109878 10.66209792
 10.67381495 10.68826036 10.80827518 10.85765431 11.16205361 11.21611627
 11.77808101 11.85876612 12.10278974 12.25188218 12.48450185 12.62383133
 12.6766066  12.80803507 12.83995452 13.09855247 13.36006012 13.58023238
 14.29045329 14.65381729 14.87072208 16.82882482 20.60942037 32.96497063]
E1 = -87.98850906293247  E_coul = 39.089519138185274
cycle= 1 E= -23.5620292792027  delta_E= -0.26  |g|= 0.481  |ddm|= 4.05
    CPU time for cycle= 1     42.59 sec, wall time      0.36 sec
  HOMO = -0.388192418563288  LUMO = 0.0970103453279584
  mo_energy =
[-1.30696009 -0.94027377 -0.65927104 -0.61931636 -0.56840002 -0.45334926
 -0.38819242  0.09701035  0.1369518   0.16302642  0.17706057  0.24199458
  0.28484139  0.31276301  0.43737792  0.44173388  0.47177137  0.4815203
  0.50331562  0.51703087  0.52384673  0.54235055  0.61106619  0.63185039
  0.66391613  0.68005171  0.79515553  0.83334755  0.87848165  0.88103717
  0.9255614   0.97128302  0.97287286  0.99198392  1.08510955  1.10768393
  1.13752612  1.1480133   1.15489041  1.19017045  1.25346497  1.34080995
  1.36191357  1.39796026  1.42897701  1.62142769  1.62232061  1.67622943
  1.73485698  1.87395074  1.91193207  1.96523218  1.97712401  2.03837218
  2.06682314  2.07008986  2.10552577  2.13484213  2.19017742  2.19319598
  2.22755694  2.30310779  2.32508439  2.33683352  2.40475824  2.43569241
  2.4789872   2.49165148  2.54251803  2.55159979  2.57808383  2.62023585
  2.64968233  2.65624591  2.76716757  2.79293914  2.82506327  2.85491598
  2.88985429  2.91053005  3.01443839  3.04266291  3.11361418  3.1322714
  3.13805387  3.20163709  3.27312114  3.38899756  3.39526049  3.41212365
  3.46834716  3.48038541  3.56185162  3.57521844  3.6473306   3.72657682
  3.8105002   3.92496375  3.98719235  4.13513918  4.14689951  4.27989951
  4.2826765   4.36989079  4.49744329  4.51989669  4.53498976  4.69911687
  4.74072479  4.90406238  5.03973355  5.12135956  5.30194081  5.52943225
  5.61416561  5.62631736  5.71412928  5.80719235  5.82368424  5.83683472
  5.89238892  5.99183647  6.0557151   6.18188629  6.22085901  6.2212514
  6.29742301  6.30807627  6.33564471  6.41455716  6.4704378   6.47551055
  6.51502582  6.5167192   6.60588542  6.64629026  6.69418146  6.69440173
  6.74671998  6.99031626  6.99867675  7.06957307  7.17311058  7.18366048
  7.25123071  7.3006453   7.34456991  7.47304809  7.50014692  7.54466411
  7.56437879  7.70919936  7.72921371  7.78224362  7.80756337  7.80977172
  7.86245721  7.89236116  7.92604086  8.00228021  8.01558498  8.05095612
  8.0568793   8.10519861  8.11071162  8.12178591  8.16171121  8.19707537
  8.27301704  8.27762913  8.42433025  8.45642119  8.51127983  8.59666701
  8.59758272  8.72391864  8.74007874  8.74877836  8.76543457  8.78680241
  8.79564579  8.96719395  9.04937907  9.14918162  9.1882389   9.33198719
  9.45365527  9.47627189  9.48166928  9.53266527  9.54694961  9.69295773
  9.76363238  9.90386206 10.10923922 10.29938524 10.40186801 10.40643915
 10.44849037 10.50158695 10.57036109 10.62103755 10.62239908 10.7848836
 10.78572464 10.84800533 10.91235261 10.95487545 11.43059095 11.45775834
 11.96521898 12.09036206 12.45164646 12.58244359 12.77426954 12.84488803
 12.84502915 13.05736555 13.08960998 13.42231221 13.75177135 13.94494691
 14.57912862 14.98120766 15.1954605  17.10250372 20.72091878 33.45226833]
E1 = -87.15585694002614  E_coul = 38.22278204049565
cycle= 2 E= -23.596114253986  delta_E= -0.0341  |g|= 0.275  |ddm|= 0.824
    CPU time for cycle= 2    108.77 sec, wall time      0.90 sec
  HOMO = -0.45871904926894  LUMO = 0.100830156149762
  mo_energy =
[-1.38964442 -0.93886091 -0.70304576 -0.6264867  -0.60121979 -0.50904959
 -0.45871905  0.10083016  0.13712905  0.16996589  0.17774146  0.24163763
  0.29251334  0.31116245  0.41973193  0.44140674  0.46902554  0.47623259
  0.49285628  0.51919364  0.52545514  0.54194069  0.59565925  0.62956509
  0.6612693   0.67760611  0.80195917  0.8385344   0.88131466  0.88550501
  0.930066    0.9691239   0.97389471  0.98620749  1.09109321  1.10385401
  1.13942007  1.14719981  1.15589615  1.18396829  1.22456446  1.3514684
  1.36385265  1.40330263  1.42697672  1.58343845  1.58541432  1.64883921
  1.6989823   1.86466403  1.91858083  1.94796443  1.99306832  2.04989899
  2.06876816  2.07489636  2.10793386  2.14168925  2.1623042   2.18313482
  2.228124    2.30201745  2.3166775   2.34677501  2.41167357  2.44703361
  2.48268783  2.49467973  2.54652781  2.56163223  2.58955908  2.62905946
  2.65519808  2.66431754  2.73184559  2.77278112  2.82512299  2.85677871
  2.880495    2.90791366  3.01210843  3.02833785  3.1171142   3.13124834
  3.13964853  3.19882299  3.27636705  3.38269849  3.40684429  3.41319269
  3.48457884  3.48864252  3.55761555  3.56445748  3.64861218  3.72955489
  3.79441937  3.90084744  3.99041093  4.14099835  4.16376395  4.23039053
  4.25356661  4.31319872  4.43847558  4.44417958  4.48855797  4.60256286
  4.67503756  4.82688943  4.97383743  5.07232531  5.24583657  5.55010599
  5.62088134  5.64526788  5.72005891  5.80724982  5.82718312  5.85751544
  5.89830988  6.00783357  6.05972072  6.19919077  6.2281673   6.24584407
  6.31058128  6.32877932  6.3379951   6.43166481  6.47990812  6.49608689
  6.52967488  6.53407102  6.61198928  6.64604344  6.7079245   6.71055636
  6.76144796  6.99982186  7.00273657  7.07608048  7.15543775  7.17661428
  7.17772555  7.23684069  7.33804635  7.48341627  7.51961497  7.53326194
  7.57134267  7.72887092  7.75104261  7.79781328  7.81378377  7.82233244
  7.87016794  7.90124589  7.94313331  8.01268321  8.02189726  8.04821639
  8.06591729  8.10584637  8.11121043  8.11211449  8.16470099  8.1715735
  8.26572935  8.28167355  8.42712791  8.4641023   8.52289061  8.60404326
  8.61053619  8.73389363  8.75955091  8.76448787  8.78472004  8.80561282
  8.81882483  8.96508447  9.00769452  9.11469854  9.1860768   9.33304918
  9.4378728   9.4733629   9.48557663  9.53527625  9.54811801  9.63634014
  9.73840891  9.84815869 10.0612977  10.2135337  10.39978239 10.41518028
 10.45633273 10.49334732 10.56430491 10.6366923  10.64644347 10.78106573
 10.78703374 10.79363888 10.92036584 10.96603585 11.31762142 11.35969915
 11.89170512 11.99312454 12.29632711 12.43472061 12.66974015 12.77694602
 12.82697903 12.95321536 12.98138017 13.27364798 13.56325019 13.77118462
 14.43746837 14.82384653 15.03514744 16.96948335 20.76356569 33.19292731]
E1 = -87.61218232901248  E_coul = 38.66638291862226
cycle= 3 E= -23.6088387648457  delta_E= -0.0127  |g|= 0.0472  |ddm|= 0.333
    CPU time for cycle= 3     82.78 sec, wall time      0.67 sec
  HOMO = -0.449110604554411  LUMO = 0.103080339486596
  mo_energy =
[-1.3719639  -0.93117106 -0.69132887 -0.61986239 -0.59276505 -0.50252056
 -0.4491106   0.10308034  0.13967622  0.17104321  0.17856351  0.24422227
  0.29455663  0.31209854  0.42106725  0.44690889  0.47233289  0.47957671
  0.49949926  0.52295384  0.52917184  0.54638689  0.60170574  0.6322753
  0.66395486  0.68205707  0.80371619  0.84127867  0.88272323  0.88758428
  0.93186058  0.97160915  0.97733136  0.99029335  1.09392144  1.10851653
  1.1410635   1.15090605  1.15841101  1.18941106  1.22848749  1.35448229
  1.36706991  1.4089338   1.43175015  1.59084041  1.59109544  1.65669729
  1.70518217  1.86986258  1.92209583  1.95425865  1.99628159  2.05246266
  2.07261172  2.07866051  2.11102203  2.1450831   2.17014338  2.18841373
  2.23147949  2.30782042  2.32054692  2.35060916  2.41742121  2.45362906
  2.48779078  2.49925215  2.55212589  2.56626824  2.59440558  2.63318835
  2.65910696  2.66867666  2.74137127  2.77870584  2.83065395  2.86195196
  2.88832915  2.91345691  3.01710369  3.03376321  3.12139788  3.13702882
  3.143243    3.20363954  3.28169562  3.39049535  3.41043759  3.41866513
  3.48802635  3.49212914  3.56673732  3.56926177  3.65462975  3.73516985
  3.8026082   3.90940062  3.99583726  4.14681635  4.16759902  4.24147608
  4.26268456  4.32385714  4.44858048  4.45583951  4.50132867  4.61723534
  4.68670077  4.83959312  4.98711219  5.08701892  5.2572632   5.55340306
  5.62807001  5.64848202  5.72593244  5.81422592  5.83380459  5.86191842
  5.90368072  6.01138482  6.06841788  6.20645511  6.2356677   6.2506588
  6.31852252  6.33376256  6.3435742   6.4385789   6.48658307  6.5011182
  6.53485702  6.53990888  6.61900171  6.65385148  6.7136045   6.71521903
  6.76670249  7.00688875  7.01008027  7.08358732  7.16921452  7.18548262
  7.19519675  7.25177721  7.34881943  7.48961042  7.52399181  7.54677788
  7.58053749  7.73660967  7.75686081  7.8065524   7.8250196   7.82904885
  7.88046776  7.90950926  7.95180109  8.022554    8.03246503  8.05703639
  8.07704021  8.11868988  8.1199989   8.12254753  8.17366232  8.18378276
  8.28088631  8.28986019  8.43678005  8.47477136  8.53456003  8.61486083
  8.61822697  8.74113678  8.76643187  8.77181039  8.79178476  8.81210432
  8.82579486  8.97621879  9.02388357  9.12788532  9.19609328  9.34803996
  9.45447665  9.48355703  9.49462399  9.54571818  9.55960912  9.65113987
  9.75032774  9.86612998 10.07569432 10.22973596 10.41133678 10.42336736
 10.46478777 10.50267873 10.57351399 10.64466231 10.65334192 10.79016045
 10.80075118 10.80469286 10.92837206 10.97286142 11.33760606 11.3784875
 11.91588428 12.01484307 12.32263998 12.46111576 12.69497547 12.79337224
 12.84119686 12.97018909 12.99822282 13.29920017 13.59470751 13.80200796
 14.46853215 14.85314811 15.06408797 16.99899411 20.76374468 33.23603581]
E1 = -87.544110412894  E_coul = 38.597807719329396
cycle= 4 E= -23.6093420480201  delta_E= -0.000503  |g|= 0.00757  |ddm|= 0.0735
    CPU time for cycle= 4     87.42 sec, wall time      0.78 sec
  HOMO = -0.451380251181001  LUMO = 0.102784481538185
  mo_energy =
[-1.37479632 -0.93182448 -0.69299829 -0.62134802 -0.59428427 -0.50379764
 -0.45138025  0.10278448  0.13949252  0.17085322  0.17867858  0.24410917
  0.29409964  0.31221663  0.42123975  0.44622841  0.47206649  0.47906955
  0.4986872   0.52242161  0.52873017  0.54601796  0.60130533  0.63187354
  0.66375172  0.68144311  0.8037213   0.84070536  0.8825484   0.88740528
  0.93173893  0.97145641  0.97667288  0.98967561  1.09325842  1.10797772
  1.14093994  1.15034479  1.15803915  1.18870273  1.22825305  1.35420867
  1.36722138  1.40821125  1.43102895  1.58989536  1.59036029  1.65551943
  1.70442429  1.86885026  1.92135265  1.95311753  1.99555682  2.05221728
  2.07214558  2.07787972  2.11040821  2.14430013  2.16891492  2.18753828
  2.231066    2.30687353  2.32013763  2.35070737  2.41639435  2.4527906
  2.4874182   2.49854428  2.55159319  2.56578294  2.59408924  2.63314288
  2.65909468  2.66874376  2.74029505  2.7782175   2.82999487  2.86169725
  2.88733025  2.9130107   3.0166511   3.03341747  3.12105199  3.13620504
  3.14312662  3.20329817  3.28091163  3.38978244  3.41016592  3.41813133
  3.48763701  3.49191377  3.56557986  3.56868993  3.65369045  3.73453979
  3.80161566  3.90834011  3.99512695  4.145981    4.166986    4.24000921
  4.26119135  4.32232128  4.4474017   4.45445748  4.49923954  4.61537552
  4.68531123  4.83789923  4.98541994  5.08461234  5.2559968   5.55225827
  5.62675463  5.64756061  5.72485992  5.81280176  5.83274877  5.86064252
  5.90280649  6.01033512  6.06692301  6.20548955  6.23513912  6.250259
  6.31755081  6.33402767  6.34327114  6.43741279  6.48606438  6.50057706
  6.53503573  6.53959836  6.61800547  6.65261563  6.71269541  6.71467104
  6.76588581  7.00621562  7.00921172  7.08256231  7.16733254  7.18399705
  7.1929018   7.25019019  7.34729381  7.48918674  7.52285142  7.54507914
  7.5795767   7.73638099  7.75704309  7.80610281  7.82434402  7.82932161
  7.87963786  7.90912708  7.95134641  8.02190292  8.03230909  8.05657806
  8.07653394  8.11884355  8.11955111  8.12139109  8.1733557   8.18224541
  8.27940901  8.28973227  8.43615184  8.47410925  8.53366656  8.61414309
  8.61898417  8.7413829   8.76607156  8.77182     8.79193164  8.81216612
  8.82595837  8.97523063  9.02219666  9.12634681  9.19499658  9.34675666
  9.4525397   9.48398528  9.49497195  9.5447221   9.55886922  9.64915378
  9.74888397  9.8637528  10.07399682 10.22766011 10.41037783 10.42317184
 10.46447874 10.5019957  10.57293918 10.64472212 10.65297888 10.78916245
 10.80005594 10.80329778 10.92794659 10.97226786 11.33542107 11.37649361
 11.91269013 12.01217579 12.31916559 12.45747218 12.69161401 12.79123351
 12.83993455 12.96791916 12.9963739  13.29551742 13.59047663 13.79782355
 14.46386922 14.84930003 15.0601495  16.99510501 20.76199532 33.23002162]
E1 = -87.55604101990266  E_coul = 38.609720966546625
cycle= 5 E= -23.6093594078115  delta_E= -1.74e-05  |g|= 0.00144  |ddm|= 0.0139
    CPU time for cycle= 5     97.52 sec, wall time      0.81 sec
  HOMO = -0.451270751460009  LUMO = 0.102847891241369
  mo_energy =
[-1.37443552 -0.93148968 -0.69261479 -0.62107351 -0.59402208 -0.50362081
 -0.45127075  0.10284789  0.13952185  0.17090783  0.17870367  0.24416473
  0.29416322  0.31222405  0.42129643  0.4463269   0.47217516  0.47914036
  0.49883512  0.52258701  0.52889152  0.54611727  0.60142623  0.63199676
  0.66384331  0.68152029  0.80374702  0.84079302  0.88262085  0.88746496
  0.93178149  0.97149407  0.97679747  0.98979967  1.09339288  1.10807948
  1.14101692  1.1504438   1.15811377  1.18879067  1.22835963  1.35437117
  1.36728067  1.40836125  1.43112725  1.59002879  1.59052625  1.65567879
  1.70461759  1.86905981  1.92149978  1.95331813  1.99575494  2.05233129
  2.07227585  2.07807469  2.11061536  2.14448365  2.16906226  2.1877418
  2.23124911  2.30703284  2.32027074  2.35074374  2.41655727  2.45292499
  2.48752916  2.49873955  2.55175767  2.56594239  2.59419039  2.63323351
  2.65918491  2.66877045  2.74044518  2.77830905  2.83015193  2.8617874
  2.88743074  2.91311851  3.01675676  3.03353208  3.12117804  3.13637085
  3.14322464  3.20338101  3.28107939  3.38992058  3.41030876  3.41827459
  3.48786203  3.49206831  3.56574891  3.56882611  3.65392383  3.73479411
  3.80180434  3.90854985  3.99537291  4.146234    4.16725966  4.24020499
  4.26147331  4.32258452  4.44760454  4.4547281   4.49951458  4.61565693
  4.68549695  4.83811025  4.98561711  5.08493749  5.25616958  5.55267393
  5.62711175  5.64791989  5.72518065  5.81319358  5.83303786  5.86105166
  5.9031466   6.0107147   6.06720464  6.20568838  6.23533019  6.25060608
  6.31778973  6.33412161  6.3434582   6.43768541  6.48625682  6.50085173
  6.5351332   6.53979109  6.61830826  6.65293361  6.71305104  6.71496609
  6.76618965  7.00647734  7.0094921   7.0829326   7.16753065  7.18443141
  7.19315932  7.25047482  7.34759264  7.48939453  7.52333577  7.54532614
  7.57987139  7.73657106  7.75722637  7.80630379  7.82450839  7.82945768
  7.87983968  7.90932635  7.95157731  8.02209732  8.0323973   8.05680195
  8.07669236  8.11896923  8.11977467  8.12154423  8.1734933   8.18250275
  8.27956199  8.28987943  8.43637896  8.47425951  8.5338564   8.61435891
  8.61904534  8.74154276  8.7663934   8.77200782  8.79211698  8.81239069
  8.82614482  8.97547077  9.02238703  9.12669763  9.19534604  9.34696905
  9.45278301  9.48402702  9.49504868  9.54500551  9.55909081  9.64949912
  9.74922069  9.8640394  10.0743167  10.22796757 10.41061129 10.42341746
 10.46474401 10.50224638 10.57320318 10.64493557 10.65334828 10.78950455
 10.80024085 10.80364748 10.92827616 10.9725773  11.33564236 11.3767419
 11.91294712 12.01242397 12.31955927 12.45788269 12.69188057 12.79163087
 12.84021016 12.96830874 12.99661459 13.29579052 13.59089806 13.79823216
 14.46411718 14.84956445 15.06037674 16.99527218 20.76294814 33.23044082]
E1 = -87.55394033243367  E_coul = 38.60761917254084
cycle= 6 E= -23.6093605143483  delta_E= -1.11e-06  |g|= 0.000421  |ddm|= 0.00411
    CPU time for cycle= 6     96.91 sec, wall time      0.84 sec
  HOMO = -0.451398688241806  LUMO = 0.102839995066351
  mo_energy =
[-1.37453246 -0.93161816 -0.69268373 -0.62119728 -0.59414027 -0.50372616
 -0.45139869  0.10284     0.13951411  0.17089657  0.1786864   0.24413412
  0.29414181  0.31219206  0.42127037  0.4462959   0.47211659  0.47909654
  0.4987473   0.52252125  0.52881596  0.54608223  0.6013924   0.63195928
  0.66381022  0.68150799  0.80372078  0.84075417  0.88256615  0.88744017
  0.93174996  0.97146167  0.97673701  0.98974072  1.09335157  1.1080432
  1.14097538  1.15040376  1.158074    1.18877679  1.22830634  1.35430183
  1.36721604  1.4083152   1.43110563  1.58997507  1.59046389  1.65562803
  1.70454912  1.86897105  1.9214213   1.95324578  1.99566095  2.05224813
  2.07220414  2.07798023  2.11050546  2.1443865   2.16897572  2.18763786
  2.23115336  2.30697721  2.32019174  2.35070442  2.41650045  2.45291332
  2.48749206  2.4986797   2.55170217  2.56589338  2.59416303  2.6331994
  2.65912669  2.66874695  2.74040788  2.77826198  2.83009559  2.86176378
  2.88741252  2.91309896  3.01671001  3.03346275  3.12112052  3.13630716
  3.14317383  3.20332987  3.28101429  3.3898618   3.4102434   3.4182115
  3.48776961  3.49198515  3.56569921  3.5687572   3.65383604  3.73469077
  3.80172105  3.90845604  3.99527307  4.14612032  4.1671397   4.24011116
  4.26137334  4.3224778   4.44749902  4.45461434  4.49940788  4.61556907
  4.68540362  4.83803051  4.98555908  5.08482911  5.25608367  5.55249209
  5.62696172  5.64773996  5.72502368  5.81302898  5.83289254  5.86088067
  5.90298556  6.01053453  6.06711326  6.20562653  6.23524125  6.2504703
  6.31769599  6.3340639   6.34334105  6.43757772  6.48617363  6.50071107
  6.53504674  6.5397257   6.61819753  6.65280075  6.71291161  6.71481983
  6.76603824  7.00634853  7.00936929  7.08278244  7.16750422  7.18426806
  7.19308976  7.25036941  7.34750933  7.48930242  7.5231436   7.54526306
  7.57978117  7.73651009  7.75714368  7.80625678  7.82450777  7.82936448
  7.87980056  7.90927772  7.95151213  8.02205476  8.03236348  8.05673054
  8.07667648  8.1188982   8.11972484  8.12151647  8.17345249  8.18243741
  8.27955179  8.28983724  8.4362964   8.47423486  8.53382473  8.61430615
  8.6189854   8.74145361  8.76627859  8.77195175  8.79200907  8.81227714
  8.82606657  8.97538263  9.02233864  9.12660623  9.19523354  9.34695201
  9.45275284  9.48396225  9.494977    9.54489863  9.55903869  9.64938863
  9.74912281  9.86395879 10.07421358 10.22783204 10.41051963 10.42331369
 10.46463231 10.50212886 10.5730775  10.64479761 10.65320441 10.78936697
 10.80012394 10.80352338 10.92812878 10.97242525 11.33554173 11.37662991
 11.91289386 12.01233285 12.31947054 12.45780287 12.69178317 12.79149694
 12.84006147 12.96818461 12.99647901 13.29568479 13.59080137 13.79814209
 14.46404507 14.8494874  15.06027743 16.99520592 20.76256597 33.23034232]
E1 = -87.55441804547944  E_coul = 38.60809680890104
cycle= 7 E= -23.6093605910339  delta_E= -7.67e-08  |g|= 0.00013  |ddm|= 0.000918
    CPU time for cycle= 7     93.41 sec, wall time      0.80 sec
  HOMO = -0.451406675419557  LUMO = 0.102841727921917
  mo_energy =
[-1.37451736 -0.93160056 -0.69265558 -0.6211866  -0.59411537 -0.5037113
 -0.45140668  0.10284173  0.13951626  0.17089966  0.1786921   0.24414131
  0.29414398  0.31219804  0.42126914  0.44630185  0.47212529  0.47909448
  0.4987587   0.52253165  0.52882533  0.54609159  0.60140846  0.63196146
  0.66381494  0.68151204  0.80372612  0.84076094  0.88257646  0.88744601
  0.93175743  0.97146754  0.97674737  0.9897526   1.09335775  1.10805236
  1.1409837   1.15041203  1.15808116  1.1887836   1.22831431  1.35431391
  1.36723471  1.40832215  1.43110906  1.58998041  1.590466    1.65563618
  1.70455075  1.8689823   1.92143397  1.953256    1.99567295  2.0522655
  2.07221643  2.07799734  2.11052238  2.1444023   2.168987    2.18765592
  2.23116807  2.30698527  2.32020443  2.35071619  2.41651237  2.45291889
  2.48750222  2.49868675  2.55171478  2.56590169  2.59417398  2.63320912
  2.65914379  2.66875775  2.74041611  2.77826988  2.83010457  2.86177195
  2.8874191   2.9131065   3.01671882  3.03347775  3.12113028  3.1363181
  3.14318416  3.20334243  3.28102649  3.38987543  3.41025408  3.41822469
  3.4877854   3.49200485  3.56570915  3.56876796  3.65384906  3.73470646
  3.80173813  3.90847262  3.99528834  4.14614055  4.16715888  4.24012678
  4.26138975  4.32249027  4.44751306  4.45462795  4.49942474  4.61557508
  4.68541319  4.83803417  4.98556741  5.0848504   5.25609567  5.55251819
  5.6269914   5.64776583  5.72504922  5.81305898  5.8329238   5.86090595
  5.90301533  6.01056447  6.06713155  6.20563658  6.23526304  6.25048934
  6.31771667  6.33407705  6.34336801  6.43759659  6.48618864  6.50073294
  6.53506885  6.53973465  6.61821627  6.65282621  6.71293526  6.71484655
  6.76606492  7.00637525  7.00939191  7.08280419  7.16751306  7.18429746
  7.19310783  7.25039392  7.34752916  7.48932408  7.5231762   7.54528412
  7.57980818  7.73652715  7.75716057  7.80627301  7.82452559  7.82939131
  7.87981088  7.90929288  7.95152727  8.02207035  8.03238017  8.05675096
  8.07669053  8.11892415  8.11973737  8.12153364  8.17346737  8.1824546
  8.27956395  8.28984885  8.43631273  8.47424793  8.53384197  8.61431811
  8.61900741  8.74147978  8.76629442  8.77196183  8.79203283  8.81230056
  8.82608266  8.97540863  9.02235487  9.1266185   9.19524854  9.34696444
  9.45276848  9.48399165  9.49500106  9.54492096  9.55905297  9.64940861
  9.74913941  9.86397808 10.07423113 10.22785235 10.41053822 10.42333158
 10.4646542  10.50215105 10.57310038 10.6448307  10.65322316 10.7893897
 10.80015188 10.80354525 10.92815314 10.97244808 11.33555883 11.37665105
 11.9129132  12.01235178 12.31949244 12.4578244  12.69179917 12.79151583
 12.84008866 12.96820129 12.99650375 13.29569568 13.59082956 13.79816985
 14.46406398 14.84951165 15.06029556 16.99522489 20.76262058 33.23038094]
E1 = -87.55426605672774  E_coul = 38.607944810757715
cycle= 8 E= -23.6093606004255  delta_E= -9.39e-09  |g|= 2.53e-05  |ddm|= 0.000371
    CPU time for cycle= 8     82.21 sec, wall time      0.71 sec
  HOMO = -0.451408868228035  LUMO = 0.102842279665605
  mo_energy =
[-1.3745162  -0.93160127 -0.69265158 -0.62118728 -0.59411474 -0.50371081
 -0.45140887  0.10284228  0.13951638  0.17090003  0.17869142  0.24414095
  0.29414476  0.31219633  0.42126829  0.44630261  0.47212429  0.4790932
  0.4987575   0.52253153  0.52882451  0.54609188  0.60140961  0.63196151
  0.6638147   0.68151286  0.80372571  0.84076129  0.88257535  0.88744601
  0.93175681  0.97146663  0.97674725  0.98975272  1.09335802  1.10805262
  1.14098323  1.15041203  1.15808063  1.18878463  1.22831361  1.35431335
  1.36723264  1.40832296  1.43111005  1.58998057  1.5904663   1.65563751
  1.70455095  1.86898255  1.92143343  1.95325676  1.9956726   2.05226398
  2.07221567  2.07799679  2.1105212   2.14440164  2.16898589  2.18765539
  2.23116746  2.30698566  2.32020385  2.35071512  2.41651329  2.45292097
  2.48750256  2.4986871   2.55171475  2.56590232  2.59417461  2.63320896
  2.65914228  2.66875711  2.74041758  2.77826892  2.83010495  2.86177246
  2.8874203   2.91310773  3.01671871  3.03347715  3.12112964  3.13631825
  3.14318343  3.20334187  3.28102689  3.38987537  3.41025358  3.41822445
  3.48778464  3.49200336  3.56571042  3.5687674   3.6538492   3.73470557
  3.80173748  3.90847225  3.99528776  4.14613954  4.16715813  4.24012624
  4.26138974  4.32249047  4.44751312  4.45462832  4.49942509  4.61557698
  4.6854145   4.83803594  4.98556925  5.08485138  5.256097    5.55251746
  5.62699084  5.6477643   5.72504823  5.81305833  5.83292231  5.86090538
  5.90301418  6.01056314  6.06713293  6.20563772  6.23526243  6.25048844
  6.31771692  6.33407568  6.34336578  6.43759662  6.48618835  6.50073154
  6.53506647  6.53973484  6.61821642  6.65282583  6.71293468  6.71484484
  6.7660633   7.00637366  7.00939118  7.08280365  7.16751634  7.18429728
  7.19311001  7.25039565  7.34753089  7.48932289  7.52317495  7.54528621
  7.57980905  7.73652724  7.75715893  7.80627385  7.82452839  7.82938864
  7.87981249  7.90929377  7.95152777  8.0220719   8.03237929  8.05675123
  8.07669216  8.11892196  8.11973802  8.12153488  8.1734674   8.18245553
  8.2795665   8.28984879  8.43631286  8.47424953  8.53384426  8.61431957
  8.61900447  8.74147732  8.76629393  8.77196165  8.79203048  8.81229839
  8.82608156  8.97540857  9.02235723  9.12661986  9.19524888  9.34696787
  9.45277207  9.48398859  9.49499848  9.54492099  9.55905424  9.64940936
  9.74913998  9.86397943 10.07423164 10.22785215 10.41053764 10.42333053
 10.46465274 10.50214966 10.57309907 10.64482719 10.65322234 10.78938879
 10.80015022 10.80354485 10.9281516  10.9724465  11.33556082 11.37665266
 11.91291605 12.01235408 12.31949663 12.45782879 12.69180231 12.791517
 12.84008719 12.96820329 12.99650305 13.29569824 13.59083403 13.79817424
 14.46406649 14.84951572 15.06029829 16.99522807 20.76261782 33.23038581]
E1 = -87.55426566616845  E_coul = 38.60794441982453
cycle= 9 E= -23.6093606007994  delta_E= -3.74e-10  |g|= 4.8e-06  |ddm|= 8.52e-05
    CPU time for cycle= 9     98.18 sec, wall time      0.80 sec
  HOMO = -0.451408950385973  LUMO = 0.102842258889471
  mo_energy =
[-1.37451592 -0.93160076 -0.69265117 -0.62118708 -0.59411412 -0.50371041
 -0.45140895  0.10284226  0.13951639  0.17090012  0.17869159  0.24414117
  0.29414483  0.31219651  0.42126824  0.44630262  0.4721244   0.47909306
  0.49875767  0.52253171  0.52882465  0.54609201  0.6014099   0.63196155
  0.66381475  0.68151279  0.80372594  0.84076142  0.88257561  0.88744609
  0.93175704  0.97146679  0.97674747  0.98975294  1.09335814  1.10805269
  1.14098345  1.15041223  1.15808087  1.18878463  1.22831378  1.35431358
  1.367233    1.40832298  1.43110995  1.58998061  1.59046639  1.65563755
  1.70455101  1.86898268  1.9214337   1.95325691  1.99567286  2.05226435
  2.07221588  2.07799711  2.11052155  2.14440202  2.16898613  2.18765579
  2.23116776  2.30698575  2.32020402  2.35071542  2.41651335  2.45292081
  2.48750267  2.49868719  2.55171495  2.56590242  2.59417469  2.63320912
  2.65914261  2.66875729  2.7404176   2.77826914  2.83010514  2.86177256
  2.88742023  2.91310769  3.01671885  3.03347743  3.12112989  3.13631842
  3.1431837   3.20334207  3.28102708  3.38987553  3.41025381  3.41822464
  3.48778492  3.49200376  3.56571044  3.56876761  3.6538494   3.73470588
  3.80173778  3.90847247  3.99528807  4.14613993  4.16715847  4.24012658
  4.26139009  4.3224908   4.4475134   4.45462872  4.49942538  4.61557723
  4.68541461  4.83803603  4.98556936  5.08485164  5.25609709  5.55251787
  5.62699122  5.64776476  5.72504864  5.81305877  5.83292276  5.86090579
  5.90301463  6.01056362  6.06713302  6.20563772  6.23526262  6.2504887
  6.31771705  6.33407596  6.34336626  6.43759684  6.48618856  6.50073191
  6.53506684  6.53973498  6.61821664  6.65282615  6.71293502  6.71484526
  6.76606374  7.00637403  7.00939148  7.08280396  7.16751612  7.1842977
  7.19311018  7.25039588  7.34753089  7.4893232   7.52317548  7.54528617
  7.57980913  7.73652733  7.75715918  7.80627385  7.82452819  7.82938901
  7.87981238  7.9092938   7.9515278   8.02207185  8.0323794   8.0567514
  8.07669203  8.11892231  8.11973807  8.12153485  8.17346754  8.18245561
  8.27956626  8.28984885  8.43631299  8.47424938  8.53384407  8.61431947
  8.61900478  8.74147773  8.76629411  8.77196172  8.79203079  8.81229869
  8.82608174  8.97540872  9.02235719  9.12662012  9.19524901  9.34696754
  9.45277194  9.48398889  9.49499876  9.54492118  9.55905417  9.64940971
  9.74914026  9.86397953 10.07423191 10.22785261 10.4105379  10.42333074
 10.464653   10.50215001 10.57309939 10.6448276  10.65322249 10.78938911
 10.80015062 10.80354512 10.92815184 10.97244679 11.33556116 11.37665299
 11.91291594 12.01235417 12.31949725 12.45782933 12.69180268 12.79151727
 12.84008756 12.96820356 12.99650342 13.29569838 13.59083464 13.79817476
 14.46406655 14.84951611 15.06029841 16.99522801 20.76261879 33.23038642]
E1 = -87.55426337073794  E_coul = 38.60794212438147
Extra cycle  E= -23.609360600812  delta_E= -1.25e-11  |g|= 1.99e-06  |ddm|= 1.47e-05
    CPU time for scf_cycle   1160.13 sec, wall time      9.86 sec
    CPU time for SCF   1160.15 sec, wall time      9.86 sec
converged SCF energy = -23.609360600812
